LAMMPS (3 Mar 2020)
units               real
dimension           3
newton              off
#processors         * * *
boundary            p p f
atom_style          full  #mpirun -np 8 ./lmp_mpi -in KOHionicInput

##force field         sudo ln -s /lib/x86_64-linux-gnu/libc.so.6 /lib64/libc.so.6
pair_style          lj/cut/coul/long 12.0
pair_modify mix arithmetic tail yes
dihedral_style      opls                    #echo 0 > /proc/sys/kernel/yama/ptrace_scope
special_bonds lj/coul 0.0 0.0 0.5
bond_style          harmonic
angle_style         harmonic
kspace_style        pppm 1.0e-6
kspace_modify       slab 3.0


##atom definition
read_restart        KOHrestart
  restoring atom style full from restart
  orthogonal box = (-17.1536 -17.8555 -34.6187) to (18.003 17.554 34.6187)
  2 by 2 by 2 MPI processor grid
  restoring pair style lj/cut/coul/long from restart
  restoring bond style harmonic from restart
  restoring angle style harmonic from restart
  restoring dihedral style opls from restart
  9487 atoms
  5085 bonds
  2520 angles
  2 = max # of 1-2 neighbors
  1 = max # of 1-3 neighbors
  1 = max # of 1-4 neighbors
  2 = max # of special neighbors
  special bonds CPU = 0.00166049 secs
  read_restart CPU = 0.0104138 secs
#read_data           1mkohdata.lmp
include             KOHpair.lmp
pair_coeff    1    1      0.076482     3.130000  # K K
pair_coeff    1    2      0.000000     0.000000  # K Hw
pair_coeff    1    3      0.109029     3.147700  # K Ow
pair_coeff    2    2      0.000000     0.000000  # Hw Hw
pair_coeff    2    3      0.000000     0.000000  # Hw Ow
pair_coeff    3    3      0.155425     3.165500  # Ow Ow
pair_coeff    4    4      0.086000     3.400000


##setting
neighbor            2 bin
neigh_modify delay 0 every 1 check yes
group ele type 4
1792 atoms in group ele
group sol type 1 2 3
7695 atoms in group sol

group elec2 molecule 3002
896 atoms in group elec2
group elec1 molecule 3001
896 atoms in group elec1
group K type 1
45 atoms in group K
group OH id 7606:7694:2
45 atoms in group OH
group water id 47:7604:3
2520 atoms in group water

#minimize 1.0e-4 1.0e-6 100 1000
#reset_timestep 0

fix SHAKE sol shake 0.0001 20 0 b 1
  45 = # of size 2 clusters
  2520 = # of size 3 clusters
  0 = # of size 4 clusters
  0 = # of frozen angles
  find clusters CPU = 0.000567025 secs

compute 2 elec2 property/atom q
compute 4 elec2 reduce sum c_2
#variable chargeDensity1 equal c_4*0.0009765625

compute 3 elec1 property/atom q
compute 5 elec1 reduce sum c_3
#variable chargeDensity2 equal c_5*0.0009765625

#compute 1 sol temp

compute Kden K chunk/atom bin/1d z lower 0.3
fix DENSITYFIXK K ave/chunk 2 5 1000000 Kden density/number file Kdesnity1V

compute OHden OH chunk/atom bin/1d z lower 0.3
fix DENSITYFIXOH OH ave/chunk 2 5 1000000 OHden density/number file OHdesnity1V

compute waterden water chunk/atom bin/1d z lower 0.3
fix DENSITYFIXwater water ave/chunk 2 5 1000000 waterden density/number file waterdesnity1V


#compute displacementSCN SCN displace/atom
#compute averageDisplacementSCN SCN reduce ave c_displacementSCN[3]
#variable perpendicularDisplacementSCN equal c_averageDisplacementSCN/150

#compute displacementC4C1im C4C1im displace/atom
#compute averageDisplacementC4C1im C4C1im reduce ave c_displacementC4C1im[3]
#variable perpendicularDisplacementC4C1im equal c_averageDisplacementC4C1im/150




dump 1 elec2 custom 1000000 elec21 q
#dump_modify 1 flush yes
dump 2 elec1 custom 1000000 elec11 q  #ele
#dump_modify 2 flush yes
dump 4 all custom 1000000 ionicTraj_nvt.lammpstrjTEST1V id mol type x y z q
#dump_modify 4 flush yes
#dump 2 all xyz 500 lmp.xyz
#dump 4a all custom 500 wer id type x y z q



thermo_style        custom step c_4 c_5
#thermo_modify flush yes
#thermo_style         custom step temp
thermo              1000
restart 500000 KOH1V  #10000

##run


run_style           verlet
#timestep            0.001
velocity ele set 0.0 0.0 0.0
fix 0 ele setforce 0.0 0.0 0.0
#fix 1 sol nvt temp 320.0 320.0 100.0  #298
#run 60000
#unfix 1
#reset_timestep 0
timestep            1.0
#fix 2 sol nvt temp 320.0 300.0 100.0  #298
#run 2000000 upto start 0 stop 2000000
#write_restart KOHrestart
#fix e1 all conp 1 1.979 801 802 -1.5 1.5 inv iter #0.5 1.979
#run 10000
#unfix 2
#reset_timestep 0
#timestep            1.0
fix 3 sol nvt temp 300.0 300.0 100.0
fix e1 all conp 1 1.979 3001 3002 -0.5 0.5 inv iter #0.5 1.979
run 7000000 upto start 0 stop 7000000
PPPM initialization ...
  using 12-bit tables for long-range coulomb (../kspace.cpp:332)
  G vector (1/distance) = 0.280035
  grid = 45 45 150
  stencil order = 5
  estimated absolute RMS force accuracy = 0.000332382
  estimated relative force accuracy = 1.00096e-06
  using double precision KISS FFT
  3d grid and FFT values/proc = 115200 66125
WARNING: Using pair tail corrections with non-periodic system (../pair.cpp:206)
Unused restart file global fix info:
  fix style: nvt, fix ID: 2
Neighbor list info ...
  update every 1 steps, delay 0 steps, check yes
  max neighbors/atom: 2000, page size: 100000
  master list distance cutoff = 14
  ghost atom cutoff = 14
  binsize = 7, bins = 6 6 10
  1 neighbor lists, perpetual/occasional/extra = 1 0 0
  (1) pair lj/cut/coul/long, perpetual
      attributes: half, newton off
      pair build: half/bin/newtoff
      stencil: half/bin/3d/newtoff
      bin: standard
Per MPI rank memory allocation (min/avg/max) = 20.22 | 23.17 | 26.27 Mbytes
Step c_4 c_5 
 2000000            0            0 
 2001000   0.90185028  -0.97451313 
 2002000    1.3707254   -1.4353328 
 2003000    1.7135281   -1.8102457 
 2004000    1.7347887   -1.8746644 
 2005000     1.961875   -2.0725965 
 2006000    1.6671688   -1.7605797 
 2007000    1.5563455   -1.6147595 
 2008000    2.0715429   -2.1829126 
 2009000    2.0930775   -2.2400854 
 2010000    2.0755864   -2.1789959 
 2011000    1.8736211    -2.088285 
 2012000    1.9785281   -2.1655879 
 2013000    1.9398392   -2.0846715 
 2014000    1.9613026   -2.0599122 
 2015000    1.7085498   -1.8849455 
 2016000    1.9846527   -2.0747351 
 2017000    2.0202167   -2.0884351 
 2018000    1.8904526   -2.0965571 
 2019000    2.0013218    -2.073394 
 2020000    1.8515215   -2.0283991 
 2021000    1.9936177   -2.1112172 
 2022000    2.2193667   -2.3126413 
 2023000    2.2245888   -2.3847444 
 2024000    2.0463594   -2.1332883 
 2025000    1.9621245   -2.0753306 
 2026000    2.0705307   -2.3048518 
 2027000    1.8889011   -2.0445176 
 2028000     1.957134   -2.1045949 
 2029000    2.1807521   -2.2939762 
 2030000    2.3308441   -2.4170447 
 2031000     1.975381   -2.1163048 
 2032000    2.2517137   -2.3973135 
 2033000    1.8877805   -1.9746193 
 2034000    2.1645728   -2.2983436 
 2035000    2.0231498   -2.1544511 
 2036000    2.2073785   -2.2540607 
 2037000     1.830811   -1.9477988 
 2038000    2.2389537   -2.3106218 
 2039000    2.3590452   -2.4411995 
 2040000    2.1008788   -2.3255619 
 2041000    1.9316935   -2.1782197 
 2042000    1.8793625    -1.997189 
 2043000    1.8701502   -2.0089714 
 2044000    1.7037679   -1.8469236 
 2045000    1.9686721   -2.1104959 
 2046000    2.1295882   -2.2694905 
 2047000    2.0775653   -2.2348173 
 2048000    2.0804929   -2.2077612 
 2049000    1.9596542   -2.1581597 
 2050000    2.0381766   -2.1796455 
 2051000    2.0221954    -2.247335 
 2052000    2.3794395   -2.5002372 
 2053000    2.1210177   -2.2228139 
 2054000    2.1097018   -2.1615898 
 2055000    1.7737208    -1.937175 
 2056000    1.9995024   -2.1902287 
 2057000    2.0031967   -2.1615644 
 2058000    1.8442276   -2.0509905 
 2059000    2.0352427   -2.1199999 
 2060000    1.9197735   -1.9825941 
 2061000    2.1165391   -2.1677885 
 2062000    2.0664355   -2.1580116 
 2063000    2.0227435   -2.0909957 
 2064000    1.9859831   -2.1228856 
 2065000    2.3136023   -2.4735697 
 2066000    1.8753017   -2.0385776 
 2067000    1.9820842   -1.9686082 
 2068000    1.6685812   -1.7484741 
 2069000    1.8917819   -1.9516594 
 2070000    2.1660629   -2.2836456 
 2071000    2.5091358   -2.5427775 
 2072000    2.4593539   -2.5740529 
 2073000    2.1388159    -2.269078 
 2074000    1.9459469   -2.0806623 
 2075000    2.2696252   -2.3896424 
 2076000    1.9550312   -2.1477138 
 2077000    1.9182593    -2.089562 
 2078000     2.173735   -2.3058411 
 2079000    2.1979845   -2.3716269 
 2080000    2.4534181   -2.6012257 
 2081000    2.3745652   -2.5145516 
 2082000    2.4734563   -2.5717454 
 2083000    2.2811189   -2.4231309 
 2084000    2.3387996   -2.4110386 
 2085000    2.2908474    -2.385444 
 2086000    2.3286057   -2.5213628 
 2087000    2.3901163   -2.5092506 
 2088000    2.1101883   -2.2401457 
 2089000    2.2697826   -2.2968572 
 2090000    2.1490023   -2.2709562 
 2091000    2.3496432   -2.5216378 
 2092000    2.3141276   -2.4715061 
 2093000    2.1869321   -2.2600881 
 2094000    2.2495538   -2.3270329 
 2095000    2.0803226   -2.1800845 
 2096000    2.2134667   -2.2603241 
 2097000     2.424059   -2.6155366 
 2098000    2.3259255   -2.4950073 
 2099000    2.3358784   -2.4065121 
 2100000    2.1767023   -2.4072619 
 2101000     2.391468    -2.532719 
 2102000    2.0310126   -2.1376649 
 2103000      2.42506    -2.541343 
 2104000    2.4607817   -2.6024269 
 2105000    2.3214931   -2.4369871 
 2106000    2.2035044   -2.3087847 
 2107000    2.1081731   -2.2743942 
 2108000    2.0329091   -2.0507073 
 2109000    1.9104181   -1.9985906 
 2110000    2.1391106   -2.2982166 
 2111000    2.4162092   -2.5080522 
 2112000    2.4378725    -2.625429 
 2113000    2.4011562   -2.5754665 
 2114000    2.2820971   -2.4662892 
 2115000    2.2475036   -2.3248653 
 2116000    2.3222585   -2.4497136 
 2117000    2.3499922   -2.4911488 
 2118000    2.2883686   -2.5056553 
 2119000    2.3045239   -2.4280215 
 2120000    2.4912938   -2.6576385 
 2121000    2.2823947   -2.3322134 
 2122000    2.1532865   -2.3954496 
 2123000    2.2578098   -2.4301334 
 2124000    2.1543301   -2.2776822 
 2125000    2.0221162   -2.1854817 
 2126000    2.0202136    -2.171654 
 2127000    2.3153124   -2.5241173 
 2128000    1.9366877   -1.9716134 
 2129000    2.0661307   -2.2109376 
 2130000    2.2426136   -2.4913883 
 2131000    2.5184236   -2.5644828 
 2132000    2.5223984     -2.56651 
 2133000    2.3281649   -2.4466677 
 2134000    2.1273323    -2.327173 
 2135000    2.0179173   -2.2171349 
 2136000     1.938328   -2.1358942 
 2137000    2.4591832   -2.5114987 
 2138000    2.3574134   -2.4910887 
 2139000    2.1270488   -2.1915946 
 2140000    2.4781227   -2.5876993 
 2141000    2.1815389    -2.297972 
 2142000    2.2625849   -2.3031399 
 2143000    2.2185013   -2.3153517 
 2144000    2.0942258    -2.321567 
 2145000    2.0929138   -2.1676354 
 2146000    2.4741777   -2.5702327 
 2147000    2.1653698   -2.2249638 
 2148000     2.338795   -2.4133101 
 2149000    2.2701736   -2.3997485 
 2150000    2.0892302   -2.1809753 
 2151000    2.1190494    -2.190761 
 2152000    2.1864662   -2.3617358 
 2153000    2.3145901   -2.4802082 
 2154000    2.4957285   -2.6866507 
 2155000    2.5666076   -2.7784108 
 2156000    2.5207519   -2.5830897 
 2157000    2.4714592   -2.5938078 
 2158000    2.2493045   -2.3904806 
 2159000    2.1595525   -2.2718847 
 2160000    2.2201497   -2.3429795 
 2161000    2.3072704    -2.479789 
 2162000    1.9486686    -2.009749 
 2163000    2.2164503   -2.2766662 
 2164000    2.1486191   -2.2133526 
 2165000    2.3354307   -2.4399519 
 2166000    2.6339214    -2.861346 
 2167000    2.3831631    -2.418369 
 2168000    2.2290281   -2.3864747 
 2169000    1.8786683   -2.0495449 
 2170000    2.0741069   -2.2704425 
 2171000    1.9335276   -2.0692456 
 2172000     1.688906   -1.8303568 
 2173000     1.741781   -1.8124555 
 2174000    1.9734633   -2.1328335 
 2175000    2.1312027   -2.2341085 
 2176000    2.1148365   -2.3033557 
 2177000    2.0294248   -2.1208111 
 2178000    1.7531872   -1.9092903 
 2179000    1.8681141   -2.0027394 
 2180000    1.8517153   -2.0087952 
 2181000    2.0173539   -2.1079687 
 2182000    1.8167593   -1.9126501 
 2183000    1.8487553   -1.9777668 
 2184000    1.6632922   -1.8315547 
 2185000    1.8106499   -1.9240002 
 2186000    1.9730813   -2.2018502 
 2187000    1.8880863   -2.0061118 
 2188000    2.1193299   -2.2440518 
 2189000    1.9778053   -2.0604264 
 2190000     2.101275   -2.1336704 
 2191000    2.0491008   -2.1175304 
 2192000    1.8578879   -2.0577898 
 2193000    2.2400805   -2.4094674 
 2194000    2.2195178   -2.4412806 
 2195000    2.1986783   -2.3682019 
 2196000    2.3754457   -2.5094172 
 2197000    2.1517562   -2.2271172 
 2198000    2.2978841    -2.433957 
 2199000    2.5016352   -2.5997073 
 2200000    2.0841093   -2.1445611 
 2201000    1.9133473   -2.0455062 
 2202000    1.8917994   -1.9433067 
 2203000    1.8840879   -2.0010533 
 2204000    1.9684946   -2.0606485 
 2205000    2.3814598   -2.5182765 
 2206000      2.52596   -2.6598692 
 2207000    2.3861176   -2.5101929 
 2208000    2.3648797   -2.5248493 
 2209000    2.6065327   -2.6662881 
 2210000    2.0258001   -2.1780214 
 2211000    2.3469553   -2.5464805 
 2212000    2.4653896   -2.6628248 
 2213000    2.3211363   -2.4426696 
 2214000    2.5274608   -2.6243252 
 2215000    2.5444496    -2.654398 
 2216000    2.1239719   -2.1744041 
 2217000    1.9371974   -2.0692231 
 2218000    2.2893557   -2.4371559 
 2219000    1.8780943    -2.028832 
 2220000    1.5804661    -1.702082 
 2221000     2.153594    -2.280279 
 2222000     2.247936   -2.3968219 
 2223000    1.8912291   -1.9895544 
 2224000    2.0298728   -2.1536835 
 2225000    2.1124421    -2.261525 
 2226000     2.163746   -2.3197628 
 2227000    2.3686584   -2.5756158 
 2228000    2.3878357   -2.5276588 
 2229000    2.5657425   -2.6472371 
 2230000    2.4324958   -2.5855709 
 2231000    2.4449982   -2.5807269 
 2232000    2.4529448   -2.5433887 
 2233000    2.7360356   -2.9264838 
 2234000    2.3881197   -2.5884178 
 2235000    2.2749616   -2.4701984 
 2236000    2.3726603   -2.6127545 
 2237000    2.1221736   -2.2864676 
 2238000     2.388721    -2.606508 
 2239000    2.1782428   -2.2942331 
 2240000    1.9458129    -2.060877 
 2241000     2.295738   -2.3178023 
 2242000    2.2951427   -2.4699826 
 2243000     2.242343   -2.4563701 
 2244000    2.0075153   -2.1523753 
 2245000    2.1824566   -2.3405383 
 2246000    2.2889121   -2.4061373 
 2247000    2.1623182   -2.3484627 
 2248000    2.3128117   -2.4414125 
 2249000    2.2951106   -2.3897127 
 2250000    2.1384927   -2.2720062 
 2251000    2.2082933   -2.3082605 
 2252000    1.7906071   -1.9040236 
 2253000     2.259458   -2.3755158 
 2254000    1.9476493   -2.1160207 
 2255000    2.2615399   -2.3433052 
 2256000    2.2620179   -2.3265869 
 2257000    2.3132866    -2.478443 
 2258000    2.2911341   -2.5513768 
 2259000     2.325221   -2.5190461 
 2260000    2.3086682   -2.5086949 
 2261000    2.3495561   -2.5392464 
 2262000    2.4246788   -2.5384438 
 2263000    2.4206238   -2.5801335 
 2264000    2.3637869   -2.5045565 
 2265000    2.2356477   -2.3317641 
 2266000    2.2630862   -2.3480632 
 2267000    2.5637235   -2.6257327 
 2268000    2.2720398   -2.3618367 
 2269000    2.1410623   -2.2529172 
 2270000    2.2188649   -2.3498023 
 2271000    2.0550528   -2.1837918 
 2272000    2.3617907   -2.5073235 
 2273000    2.0669768   -2.1943966 
 2274000    2.5068309   -2.6170208 
 2275000    2.2210717   -2.3228241 
 2276000    1.9442129   -2.0884824 
 2277000    2.2330146   -2.3771094 
 2278000     2.367638    -2.416076 
 2279000    2.6474836   -2.6966449 
 2280000    2.1892538   -2.4426994 
 2281000    2.3323687   -2.4259108 
 2282000    2.2767264   -2.4263556 
 2283000    2.0468822   -2.2039461 
 2284000    2.0906802   -2.2148494 
 2285000    2.2836232   -2.4368553 
 2286000    2.1928246   -2.3418091 
 2287000    2.1250695    -2.257077 
 2288000    1.9190059   -2.0642358 
 2289000    2.1391505   -2.3416237 
 2290000    2.3522523     -2.41362 
 2291000    2.0281435   -2.2096399 
 2292000    2.4092025   -2.4399098 
 2293000    2.6282691    -2.700601 
 2294000    2.4926496   -2.5392341 
 2295000    2.3603033   -2.5332731 
 2296000    2.5240524   -2.7210086 
 2297000    2.3753875   -2.5759202 
 2298000    2.0342615   -2.1883994 
 2299000     1.936279   -2.0501209 
 2300000    2.0268093   -2.0892045 
 2301000    2.0649277   -2.1433981 
 2302000    2.0840933   -2.2024072 
 2303000    1.7602315   -1.9734563 
 2304000    1.4755588   -1.6019277 
 2305000    1.6292223   -1.7432589 
 2306000    1.7916723   -1.8607046 
 2307000    1.9381448   -2.0642102 
 2308000    1.8850385   -2.0162759 
 2309000    2.0376409   -2.1547724 
 2310000    2.0956412   -2.2868324 
 2311000    2.0979133   -2.2198613 
 2312000    1.9722809   -2.0747543 
 2313000    2.1230248   -2.2879227 
 2314000    2.0830129   -2.1864071 
 2315000      2.35051   -2.3976821 
 2316000    2.3544255   -2.4427289 
 2317000    2.2007075   -2.3117984 
 2318000    1.9952785   -2.1046158 
 2319000    1.6335742   -1.8485411 
 2320000    2.0009614   -2.1640623 
 2321000    1.9436394   -2.0252667 
 2322000    2.0149308   -2.1051292 
 2323000    2.3702858    -2.502125 
 2324000    2.0197252    -2.186563 
 2325000    2.5519989   -2.5663382 
 2326000    2.3732436   -2.5080615 
 2327000    2.3241083   -2.4951526 
 2328000    2.1112098   -2.2365232 
 2329000    2.0592216   -2.2028935 
 2330000    2.0593223    -2.199813 
 2331000    2.1842766    -2.271257 
 2332000    2.2065612    -2.350348 
 2333000     2.178428   -2.3329118 
 2334000    2.0794256   -2.2494018 
 2335000    2.1446405   -2.2684152 
 2336000    2.0336865   -2.1236764 
 2337000    2.4715707   -2.5274507 
 2338000    2.4023853   -2.5053979 
 2339000    2.3358951   -2.4623031 
 2340000    2.3146403   -2.3766221 
 2341000    2.4406475   -2.5901848 
 2342000    2.4192496   -2.4801687 
 2343000    2.3852615   -2.5047533 
 2344000    2.2147709   -2.3861504 
 2345000    2.2567037   -2.3770213 
 2346000    2.1856438   -2.3095865 
 2347000    2.1902199   -2.3815024 
 2348000    2.1256087   -2.2634698 
 2349000    2.1577265    -2.318481 
 2350000    2.2113583    -2.379643 
 2351000    2.3640945   -2.4041553 
 2352000    2.0928725   -2.1717047 
 2353000    2.2541574   -2.3768919 
 2354000     2.558451   -2.6478627 
 2355000    2.1221929   -2.4034523 
 2356000    2.3724517   -2.5231247 
 2357000     2.492642   -2.5973822 
 2358000     2.435805   -2.4816202 
 2359000    2.8136024   -2.8592154 
 2360000    2.5723148    -2.640045 
 2361000    2.7548748   -2.8094633 
 2362000    2.5123111   -2.6332459 
 2363000     2.122038   -2.2469101 
 2364000    2.5075361   -2.6479249 
 2365000     2.544194   -2.7565173 
 2366000    2.5259978    -2.696591 
 2367000     2.085773   -2.2886599 
 2368000    1.9555475   -2.0793755 
 2369000    2.0548241   -2.1821986 
 2370000    2.0526319   -2.2054367 
 2371000    2.0132569   -2.1170899 
 2372000    2.1983449    -2.319931 
 2373000     2.022169   -2.1142374 
 2374000    1.9934516   -2.1459893 
 2375000    2.0468022     -2.24582 
 2376000    2.4170904   -2.5071463 
 2377000    2.3198538   -2.4999703 
 2378000    2.4006514    -2.501797 
 2379000    2.4963111   -2.6458683 
 2380000    2.5887224   -2.6456627 
 2381000    2.3567562   -2.5465052 
 2382000    2.5534085   -2.7196562 
 2383000    2.4326278   -2.6213995 
 2384000    2.5748886   -2.7155248 
 2385000    2.3204427   -2.4378919 
 2386000    2.3542454   -2.4495489 
 2387000     2.282757   -2.4079432 
 2388000    2.4491651   -2.5837974 
 2389000    2.1050535   -2.2999511 
 2390000     2.388246   -2.4587578 
 2391000    2.0232795   -2.1887594 
 2392000    2.3640619   -2.5062005 
 2393000    2.1931062   -2.2965183 
 2394000    2.2982429   -2.4790433 
 2395000    2.4156198   -2.5336536 
 2396000    2.4639561   -2.6229104 
 2397000    2.1854646    -2.403316 
 2398000    2.1810591   -2.3132528 
 2399000    2.0674788   -2.2139693 
 2400000     2.056955   -2.2213258 
 2401000    2.2929407   -2.4195569 
 2402000    2.3894481   -2.5588464 
 2403000    2.2673678    -2.341053 
 2404000    2.3282403   -2.5300572 
 2405000    2.2251752   -2.3963271 
 2406000    2.4524581   -2.5038164 
 2407000    2.4667973   -2.5704391 
 2408000    2.0363763   -2.0969057 
 2409000    2.0100832   -2.1359221 
 2410000    1.9473687   -2.0879972 
 2411000    2.1649159   -2.3038742 
 2412000    2.2606589   -2.3952334 
 2413000    2.2441872    -2.421959 
 2414000     2.567348   -2.7112133 
 2415000       2.3625   -2.4935673 
 2416000     2.639777   -2.7534897 
 2417000    2.4120679   -2.5147747 
 2418000     2.137818   -2.2069684 
 2419000    2.3376318   -2.4721229 
 2420000    2.4784125   -2.5472847 
 2421000     2.398959   -2.4980246 
 2422000    2.3215832   -2.3984803 
 2423000    2.3847527   -2.5225335 
 2424000    2.2005457   -2.3390445 
 2425000    2.2720593   -2.3819264 
 2426000    2.1831417   -2.2737121 
 2427000    2.4595339   -2.6441427 
 2428000     2.328252   -2.4578937 
 2429000    2.3314279   -2.4541337 
 2430000     2.088889   -2.3324852 
 2431000    2.2297769   -2.4280943 
 2432000    2.5620326   -2.8146063 
 2433000    2.2975425   -2.4826048 
 2434000    2.1468561   -2.3939417 
 2435000    2.3077609   -2.3715299 
 2436000    2.0281308   -2.1850889 
 2437000    1.9138315   -2.0343606 
 2438000    2.3333756    -2.516177 
 2439000     2.547686   -2.6074983 
 2440000     2.646772   -2.7857934 
 2441000    2.2667936   -2.4338417 
 2442000    2.5832043   -2.6371686 
 2443000    2.3536289   -2.4496647 
 2444000    2.1320972   -2.1460073 
 2445000    2.3124974   -2.4170234 
 2446000    2.4880956   -2.6391317 
 2447000    2.5540812   -2.7488121 
 2448000     2.300984   -2.4877325 
 2449000    2.1492856   -2.3425537 
 2450000    2.3421229   -2.4759401 
 2451000    2.2981724   -2.4477584 
 2452000    2.1999363   -2.3896749 
 2453000    2.1159887   -2.2271325 
 2454000    2.0200476   -2.1186619 
 2455000    1.8100717   -1.9208277 
 2456000    2.1169687    -2.199708 
 2457000    1.9821588   -2.1105136 
 2458000    2.3130424    -2.511286 
 2459000    2.2992151     -2.39929 
 2460000    2.6602104   -2.7750681 
 2461000     2.458612   -2.4567979 
 2462000    2.4636789    -2.509877 
 2463000    2.2058229   -2.3436951 
 2464000    2.3063591   -2.5180527 
 2465000    2.3924924   -2.4461989 
 2466000    2.2848146   -2.4116169 
 2467000    2.2313881   -2.3351546 
 2468000    2.1649104   -2.2797471 
 2469000    2.3615328   -2.4843584 
 2470000    2.2432697   -2.3678515 
 2471000    1.8553308   -2.0581367 
 2472000    1.7076136   -1.9220498 
 2473000    1.7564471   -1.8730597 
 2474000    1.7853035   -1.9471274 
 2475000    1.7170173   -1.8685543 
 2476000    2.2880659   -2.3773954 
 2477000    2.4775317   -2.5292746 
 2478000    2.3580624   -2.5450932 
 2479000    2.3657554   -2.5615936 
 2480000    2.4213685   -2.5501132 
 2481000    2.2252201   -2.2929416 
 2482000    2.1744693   -2.1003596 
 2483000    2.0385671   -2.1163412 
 2484000    2.2357515   -2.4114879 
 2485000    2.4029765    -2.549491 
 2486000    2.3446132   -2.4269744 
 2487000    2.3734792   -2.6035534 
 2488000    2.4228616   -2.5222133 
 2489000    2.2038968   -2.3699769 
 2490000    2.3874554   -2.4993443 
 2491000    2.0967005   -2.2129684 
 2492000    1.7579683   -1.9163997 
 2493000    2.1277052   -2.3374483 
 2494000    1.8732075   -2.0109714 
 2495000    1.9604731    -1.988515 
 2496000    2.1379281   -2.2416688 
 2497000    2.2937093   -2.4631593 
 2498000     2.271585   -2.4312747 
 2499000    2.2519822   -2.3769832 
 2500000    1.6247692   -1.7770376 
 2501000    1.9839104   -2.1251819 
 2502000    1.8950837   -2.0954055 
 2503000    2.1941684   -2.2955679 
 2504000    2.1957691   -2.2946222 
 2505000    2.1530525   -2.3022345 
 2506000    2.3668469   -2.4420864 
 2507000    2.2142089   -2.3432487 
 2508000    1.6987975    -1.819407 
 2509000    1.9032107   -2.0274313 
 2510000    1.7607663   -1.8185545 
 2511000    1.7859645    -1.827339 
 2512000    1.9330303   -2.1095201 
 2513000    1.9898397     -2.08304 
 2514000    1.9741698   -2.1175322 
 2515000    2.2742462   -2.3784526 
 2516000    2.2991559   -2.4194825 
 2517000    2.0925461   -2.1573941 
 2518000    2.2099006   -2.2885866 
 2519000    2.1391431   -2.2546096 
 2520000    1.9028171   -2.1468429 
 2521000    2.4667051   -2.5948217 
 2522000     2.056562   -2.1716956 
 2523000    1.8636583   -1.9904789 
 2524000    1.9781138   -2.1043414 
 2525000    2.1227959   -2.2279979 
 2526000    2.0909809   -2.2078827 
 2527000    1.8267182   -2.0179287 
 2528000    1.5278228   -1.5873248 
 2529000    1.8014953   -2.0013367 
 2530000    1.9160662   -2.0273612 
 2531000    1.9157632   -2.0095711 
 2532000    1.8867948   -2.0246174 
 2533000    1.9051229   -2.1189748 
 2534000    2.0768129   -2.2507174 
 2535000    1.8979555   -2.0278449 
 2536000    1.7799366   -2.0080512 
 2537000    2.0736784   -2.2268107 
 2538000    1.9097652   -2.0376686 
 2539000    1.7832012   -1.9172255 
 2540000    2.1159492   -2.2544743 
 2541000     2.123578   -2.3045275 
 2542000    2.0561461   -2.3265983 
 2543000     1.975592   -2.1430562 
 2544000    1.9395083   -2.1571726 
 2545000    2.1182981   -2.2314545 
 2546000    2.2479783   -2.3717481 
 2547000    2.3473494   -2.4730226 
 2548000    2.1878442   -2.4023139 
 2549000    2.0005053   -2.0806148 
 2550000    2.1398481   -2.3385646 
 2551000    2.1258355   -2.2308991 
 2552000      2.11646   -2.2000284 
 2553000    1.9585324   -2.0459471 
 2554000    1.9292671   -1.9958273 
 2555000    2.1489398   -2.2639559 
 2556000    2.1868553   -2.3692094 
 2557000    2.6207795   -2.7508812 
 2558000    2.5774969   -2.7148728 
 2559000     2.398076   -2.4896011 
 2560000    2.3688917   -2.5293993 
 2561000    2.0798652   -2.1776564 
 2562000    2.2608415   -2.4464782 
 2563000    2.4205549    -2.567854 
 2564000    2.2577891   -2.3754868 
 2565000    2.3428923   -2.5091801 
 2566000    2.6336431   -2.7634081 
 2567000    2.4048701   -2.6109712 
 2568000    2.0933028   -2.3215721 
 2569000    2.1672531   -2.3163637 
 2570000    2.2343027   -2.3361452 
 2571000    2.5002739   -2.5694669 
 2572000    2.2394383   -2.3501412 
 2573000    2.2154019   -2.3645966 
 2574000    2.3276304   -2.4705687 
 2575000    2.3576855   -2.5013746 
 2576000    2.3770339   -2.6460333 
 2577000    2.5216472   -2.7394058 
 2578000     2.445678   -2.5443359 
 2579000    2.6431469   -2.8463542 
 2580000    2.3603868   -2.5459265 
 2581000    2.3643966   -2.6105284 
 2582000    2.2693523   -2.4128221 
 2583000    2.2766643   -2.3855215 
 2584000    2.0483298   -2.1465013 
 2585000    2.1127128   -2.2169697 
 2586000     2.271194   -2.4282132 
 2587000    2.1869263   -2.4152786 
 2588000    2.2937836   -2.3861711 
 2589000    2.3597773   -2.4598908 
 2590000    2.2867738   -2.4394174 
 2591000     2.302197   -2.3756083 
 2592000    2.0805074   -2.1766771 
 2593000    2.3266245   -2.5240434 
 2594000    1.8698372   -1.9759774 
 2595000    1.9879447   -2.1176556 
 2596000    2.3677153   -2.4630135 
 2597000      2.38205   -2.4912463 
 2598000    2.3993333   -2.5498421 
 2599000    2.4526049   -2.5714371 
 2600000    2.5117019   -2.6464127 
 2601000    2.4815963   -2.7077706 
 2602000     2.288902   -2.4651255 
 2603000    2.6114998    -2.669952 
 2604000     2.642684    -2.781571 
 2605000    2.5143128   -2.6471252 
 2606000    2.3671912   -2.5561499 
 2607000    2.6444148   -2.8201448 
 2608000    2.3985945   -2.5277044 
 2609000    2.4199102     -2.54276 
 2610000    2.3570754   -2.4821412 
 2611000    2.2649196   -2.4063875 
 2612000    2.2847114   -2.3971304 
 2613000    2.1675663   -2.3303344 
 2614000    2.0704106   -2.2671559 
 2615000    2.1375497    -2.207356 
 2616000    1.9907742   -2.1094398 
 2617000    2.0492842   -2.1609919 
 2618000    2.1071048   -2.2316433 
 2619000    2.1708925   -2.1986122 
 2620000    2.1727643   -2.2603709 
 2621000    2.3289998   -2.3646221 
 2622000     2.142147   -2.3033906 
 2623000    2.0945109   -2.1288889 
 2624000    2.1813481   -2.2669365 
 2625000    2.0751762    -2.136692 
 2626000    2.4480895   -2.5731111 
 2627000    2.0637461   -2.1934672 
 2628000    2.3964566   -2.5328659 
 2629000    2.3052036   -2.4642575 
 2630000    2.0212731   -2.1117245 
 2631000    2.1450962   -2.2578754 
 2632000    2.3686514   -2.5315586 
 2633000    2.1769043   -2.3152286 
 2634000    2.2622033   -2.4791744 
 2635000    2.5392393   -2.6316161 
 2636000    2.2291246   -2.3399376 
 2637000    2.3436119   -2.4969533 
 2638000    2.0054496   -2.1866116 
 2639000    2.0998019    -2.222427 
 2640000    2.5407898   -2.6940379 
 2641000      2.39676   -2.5778641 
 2642000    2.2506016   -2.4387972 
 2643000    2.2892424   -2.3811227 
 2644000    2.1751328   -2.3673311 
 2645000     2.599101   -2.7497749 
 2646000    2.4130862   -2.4936657 
 2647000    2.6716537   -2.8042412 
 2648000    2.4222145    -2.627058 
 2649000    2.2853583   -2.4578967 
 2650000    2.3380356   -2.4892761 
 2651000    2.4644271   -2.5494833 
 2652000    2.5516531   -2.6861895 
 2653000    2.6062846   -2.6791382 
 2654000    2.1807538   -2.3116831 
 2655000    2.2200368   -2.2805541 
 2656000    2.1123068   -2.2235982 
 2657000    2.2615817   -2.3846103 
 2658000    2.1840245   -2.3175989 
 2659000    2.1508372   -2.2233472 
 2660000     2.182917   -2.3506414 
 2661000    2.0360944   -2.1716778 
 2662000    1.7317907   -1.8381975 
 2663000    1.9659907   -2.1267597 
 2664000    2.1529222    -2.282312 
 2665000    2.0326138   -2.1474375 
 2666000    1.8753228   -2.1111901 
 2667000    1.9411215   -2.0420757 
 2668000    2.1241802   -2.1920196 
 2669000    2.2679444   -2.4613828 
 2670000    2.2984802   -2.4011359 
 2671000    2.2834058   -2.4286201 
 2672000    2.1135828   -2.2488327 
 2673000    2.0892123   -2.1734288 
 2674000    2.2337706   -2.3097237 
 2675000    1.9376212   -2.1103284 
 2676000    1.8389344   -1.9423927 
 2677000    1.9074132    -2.048283 
 2678000    2.0091465   -2.1553769 
 2679000    1.9907983   -2.1982316 
 2680000    2.3569536   -2.5193901 
 2681000    2.0913379   -2.2433025 
 2682000    2.1096348   -2.1619908 
 2683000    1.7556809   -1.9106196 
 2684000    2.2311465   -2.4097436 
 2685000    1.8350101   -1.9896799 
 2686000    2.2360778   -2.2944883 
 2687000    2.2176285   -2.3583134 
 2688000     2.263159   -2.3708941 
 2689000    2.0630435   -2.2253208 
 2690000    2.0759356   -2.1804295 
 2691000    2.1584954   -2.2576414 
 2692000    2.2472646   -2.3260812 
 2693000    2.4659168    -2.634616 
 2694000    2.4197152   -2.4848694 
 2695000    2.6722637   -2.7240094 
 2696000    2.7254498   -2.7839986 
 2697000    2.2442409   -2.4455761 
 2698000    2.0079455    -2.112365 
 2699000    2.0032452   -2.2033611 
 2700000    2.1429778   -2.2503179 
 2701000    2.2021586   -2.2231995 
 2702000    2.4075721   -2.5000355 
 2703000    2.3866222   -2.4680421 
 2704000    2.2754118   -2.3782963 
 2705000    2.0291825    -2.076444 
 2706000    2.0128928   -2.1762368 
 2707000     2.228463   -2.2291882 
 2708000    2.2214548     -2.30437 
 2709000    2.0421748   -2.1958405 
 2710000    2.2160195   -2.2972127 
 2711000    1.9299435   -2.0710752 
 2712000    2.3103393   -2.4253467 
 2713000    2.2283597   -2.3898106 
 2714000    2.2776486   -2.3651326 
 2715000    2.0454891   -2.1930982 
 2716000    2.1958935   -2.3560004 
 2717000    2.4124259   -2.5335166 
 2718000      2.21048   -2.3131745 
 2719000    2.5176401   -2.7162282 
 2720000    2.6303425   -2.8366206 
 2721000    2.5049905    -2.657111 
 2722000    2.3634273   -2.5853314 
 2723000    2.2446488     -2.40417 
 2724000    2.6169968   -2.6807773 
 2725000    2.2373593   -2.4220215 
 2726000    2.0829803   -2.1554181 
 2727000    2.3199986    -2.439482 
 2728000    2.3885704   -2.5527322 
 2729000    2.7212797   -2.7891239 
 2730000    2.4613709   -2.6152084 
 2731000    2.5069094   -2.6488341 
 2732000     2.357048   -2.5257154 
 2733000    2.1164909   -2.2827515 
 2734000    2.0717849   -2.2779275 
 2735000    2.0986016    -2.223896 
 2736000     2.487537   -2.5332884 
 2737000    2.0207551   -2.2007494 
 2738000    2.0991853   -2.2846191 
 2739000    1.9642084   -2.0804991 
 2740000    2.1018214   -2.1852584 
 2741000    1.9389814   -2.0640771 
 2742000    2.1586226    -2.273321 
 2743000    1.9866866   -2.0364532 
 2744000    1.9884015   -2.1458576 
 2745000    2.0208616   -2.1430882 
 2746000    2.0964863   -2.2767735 
 2747000    2.1237449   -2.2485709 
 2748000    2.1131067   -2.2537889 
 2749000    1.8754452   -2.0458383 
 2750000    2.2344385   -2.3866019 
 2751000     2.346265   -2.4962617 
 2752000     1.993122   -2.0532199 
 2753000    1.9152613   -2.0175267 
 2754000    1.8212864   -1.9360115 
 2755000    1.8518417   -2.0405269 
 2756000    1.7861142   -1.9380305 
 2757000    1.8482616   -1.9781222 
 2758000    2.0914201   -2.1910787 
 2759000    2.0995357   -2.1916991 
 2760000    2.1987375   -2.2929243 
 2761000    2.2224803   -2.3490011 
 2762000     2.224353   -2.3379778 
 2763000     2.341661   -2.5121429 
 2764000    2.1879677    -2.382443 
 2765000    2.1786125   -2.4247204 
 2766000    2.1972347   -2.3272654 
 2767000    2.2316422   -2.3630382 
 2768000    2.0648582   -2.1346189 
 2769000    2.0056839   -2.0187213 
 2770000    2.1174935   -2.2114219 
 2771000    2.1136323    -2.275985 
 2772000    1.9620432   -2.1068183 
 2773000    1.9291791   -2.0979568 
 2774000    2.2778444    -2.397152 
 2775000    2.6201477   -2.7445336 
 2776000    2.2291261   -2.4057086 
 2777000    2.1554495   -2.3686971 
 2778000    1.8772923   -2.0563138 
 2779000    2.0974387    -2.290004 
 2780000    2.3662973   -2.4925233 
 2781000    1.7966161   -1.9044413 
 2782000    2.0013752   -2.1719168 
 2783000    2.0299967   -2.1799488 
 2784000     2.360319   -2.5039834 
 2785000    2.4894293   -2.6229599 
 2786000     2.299925   -2.4388685 
 2787000    2.1158684   -2.2939368 
 2788000    1.9665684   -2.0659025 
 2789000    1.9981214   -2.1546281 
 2790000    2.1494729   -2.2909941 
 2791000    2.0630111   -2.2074269 
 2792000    1.9485426   -2.0984224 
 2793000    1.9344226   -2.0899487 
 2794000    2.0542462   -2.2282402 
 2795000    2.1995006   -2.2878138 
 2796000     1.771452   -1.9202537 
 2797000    2.1086202   -2.2348046 
 2798000    1.9937442   -2.1385458 
 2799000    2.0068725    -2.190609 
 2800000     2.079246   -2.2560096 
 2801000    2.1667452   -2.3244224 
 2802000    2.2829103   -2.4128385 
 2803000    2.2529662    -2.494684 
 2804000    2.5538432   -2.6555728 
 2805000    2.1472173   -2.2267026 
 2806000    2.3051036   -2.4005714 
 2807000    2.2055786   -2.2807475 
 2808000    1.9202616   -1.9844676 
 2809000    2.2678369    -2.330581 
 2810000    2.2761575   -2.3202379 
 2811000    2.4806574   -2.5799965 
 2812000    1.7731133   -1.8888706 
 2813000    1.6580685   -1.8409146 
 2814000    2.1334961    -2.307004 
 2815000    2.4377943   -2.5130712 
 2816000     2.553924   -2.7183583 
 2817000    2.3140796   -2.4794708 
 2818000    2.3270087   -2.4645001 
 2819000    2.4584726   -2.6078204 
 2820000    2.3352136   -2.5384467 
 2821000    2.7587518   -2.8506159 
 2822000    2.8413439   -2.9999597 
 2823000    2.6909239   -2.8774084 
 2824000    2.1393559   -2.3196338 
 2825000    2.2123208   -2.3468234 
 2826000    2.1606605    -2.325013 
 2827000    2.1290922   -2.2853669 
 2828000    2.0637123   -2.1283793 
 2829000    2.1703355   -2.2972248 
 2830000    2.3001339   -2.4678938 
 2831000    2.4228047   -2.6457122 
 2832000    2.5277795   -2.6805262 
 2833000    2.5438176   -2.5947482 
 2834000    2.4422298   -2.5710444 
 2835000    2.2335814   -2.4050128 
 2836000    2.3052687   -2.4809059 
 2837000    2.2408993   -2.3755673 
 2838000     2.555207   -2.7469683 
 2839000    2.4433607   -2.6088182 
 2840000    2.5427209   -2.6555285 
 2841000    2.2222201   -2.3415815 
 2842000    2.4813256    -2.667706 
 2843000    2.2395474   -2.4252963 
 2844000    2.2581183   -2.3057934 
 2845000    2.1385793    -2.267272 
 2846000    2.2372726   -2.3636107 
 2847000    2.1245359    -2.236218 
 2848000    2.1328667   -2.3600537 
 2849000    2.2932071   -2.3522237 
 2850000    2.1136139   -2.1894297 
 2851000    2.3777386   -2.3971799 
 2852000    2.0815667   -2.2870532 
 2853000    2.3562071   -2.6674536 
 2854000    2.4068542   -2.5787291 
 2855000    2.4438255   -2.5887257 
 2856000    2.1987507   -2.4134984 
 2857000    2.4455144   -2.5359453 
 2858000    2.4773174   -2.6346678 
 2859000    2.3073579   -2.4393366 
 2860000    2.4470633   -2.5886023 
 2861000     2.765836   -2.9811447 
 2862000    2.5641217   -2.6046739 
 2863000    2.4727095   -2.6286083 
 2864000    2.5284524   -2.6507152 
 2865000    2.4568594   -2.6339302 
 2866000    2.2557734   -2.3534628 
 2867000    2.0827692   -2.2514653 
 2868000    1.6163472   -1.7137951 
 2869000    1.7872641   -1.8418857 
 2870000    2.1036453   -2.2736946 
 2871000    2.1198253   -2.3001204 
 2872000    1.7781014    -1.922121 
 2873000    2.0976287   -2.2102412 
 2874000    2.1015104   -2.2835753 
 2875000    2.2638307   -2.3801177 
 2876000    2.1920614   -2.2867576 
 2877000    2.2614034   -2.4405272 
 2878000    2.1519114   -2.2111879 
 2879000    2.2390653    -2.313535 
 2880000    2.0098737   -2.1038453 
 2881000    2.4319072   -2.4047181 
 2882000    2.3175573   -2.4796287 
 2883000    1.9485854   -2.0810057 
 2884000     2.057571   -2.2384181 
 2885000    2.2483557     -2.38383 
 2886000    1.9264837   -2.1136826 
 2887000    2.4876646   -2.6395205 
 2888000    2.0844489   -2.2764136 
 2889000    2.1550512   -2.2827389 
 2890000    2.0650226   -2.1535998 
 2891000    2.3328992   -2.5195467 
 2892000    2.6026814    -2.738977 
 2893000      2.27736   -2.4647239 
 2894000    2.4326017   -2.5947488 
 2895000    2.1989599   -2.3282728 
 2896000    2.3362207   -2.4534581 
 2897000    2.0826825   -2.1920138 
 2898000    2.1798596   -2.3334524 
 2899000    2.6322675   -2.7810238 
 2900000    2.6593075   -2.8110126 
 2901000    2.4736584   -2.6213807 
 2902000    2.4352605   -2.6063613 
 2903000    2.2696618    -2.345184 
 2904000    2.4067493   -2.5869666 
 2905000    2.2891456   -2.5029794 
 2906000    2.1415175   -2.3812575 
 2907000    2.3312429   -2.4571175 
 2908000    2.0479251   -2.1506862 
 2909000    2.3912284   -2.4970414 
 2910000    2.2300174   -2.2848125 
 2911000    2.2435939   -2.3313567 
 2912000    2.3790694   -2.5360897 
 2913000    2.3224202   -2.4863691 
 2914000    2.2071944   -2.3556979 
 2915000     2.438852   -2.5548933 
 2916000    2.6572425   -2.8009441 
 2917000    2.3614591   -2.4497382 
 2918000    2.4380876   -2.4691271 
 2919000    1.9456786   -2.1141673 
 2920000    1.8766213   -1.8803162 
 2921000    2.1449552   -2.2794897 
 2922000    2.0443807   -2.1685308 
 2923000     2.034483    -2.225439 
 2924000     1.618809   -1.7513365 
 2925000    2.2067543    -2.303473 
 2926000    2.0852356   -2.2279372 
 2927000    2.2049841   -2.2502048 
 2928000    2.5615044   -2.6618945 
 2929000    2.4623828   -2.5500335 
 2930000    2.2330427   -2.4170646 
 2931000    1.8834109   -2.0181739 
 2932000    2.0112213    -2.199242 
 2933000     2.389567     -2.51155 
 2934000    2.4480806   -2.5749383 
 2935000    2.3846333   -2.5303784 
 2936000    2.3615148   -2.5174931 
 2937000    2.2760602   -2.4372996 
 2938000    2.0977305   -2.2666687 
 2939000    2.4293122   -2.5405776 
 2940000    2.3151127   -2.4566956 
 2941000    2.3573679   -2.5017217 
 2942000     2.281384   -2.3806817 
 2943000    2.1848538   -2.3743155 
 2944000    2.2533613   -2.4596464 
 2945000    2.1784693   -2.2311003 
 2946000    2.3084471   -2.4529748 
 2947000    2.5985993   -2.6600198 
 2948000    2.3303598   -2.4162347 
 2949000     2.221549   -2.3760002 
 2950000    2.5302306   -2.6658331 
 2951000    2.4844594   -2.5719035 
 2952000    2.3569196   -2.4815654 
 2953000    2.5455362   -2.7125955 
 2954000     2.534505   -2.5780037 
 2955000    2.3274125   -2.4607679 
 2956000     2.486292   -2.6669922 
 2957000    2.3120055   -2.4072655 
 2958000    2.0463282   -2.2263572 
 2959000     2.535126   -2.7055284 
 2960000    2.4758841   -2.6379428 
 2961000     2.277428   -2.4020783 
 2962000    2.2394961   -2.3706318 
 2963000    2.1912424   -2.3657978 
 2964000     2.040224   -2.1838454 
 2965000    2.5132764   -2.6395609 
 2966000    2.5606272    -2.597737 
 2967000    2.4611595   -2.6279459 
 2968000    2.3198753   -2.5267496 
 2969000    2.6155855   -2.7121355 
 2970000    2.4757132   -2.6738146 
 2971000    2.5461995   -2.7064231 
 2972000    2.5437488    -2.559005 
 2973000    2.3525534   -2.4290711 
 2974000    2.3086917   -2.3845828 
 2975000    2.4795203   -2.6732578 
 2976000    2.4086351   -2.6042781 
 2977000    2.4725848   -2.6248712 
 2978000    2.3679322   -2.5229574 
 2979000    2.3802446   -2.4493853 
 2980000    2.5696781   -2.6548149 
 2981000    2.4556681   -2.6680471 
 2982000    2.6788471   -2.8206898 
 2983000    2.2951183   -2.5202114 
 2984000    2.5422942   -2.6770609 
 2985000    2.5103287   -2.6458024 
 2986000    2.2548738   -2.4221625 
 2987000    1.9930484   -2.1934157 
 2988000    2.0533372   -2.1804369 
 2989000    1.9702028   -2.0607382 
 2990000    2.4693344   -2.5988638 
 2991000    2.1588286   -2.2831629 
 2992000    2.3415428   -2.5094354 
 2993000    1.9567277   -2.1245875 
 2994000    2.3570066   -2.5068197 
 2995000    2.3767122   -2.5119165 
 2996000    2.5248369   -2.7132772 
 2997000    2.4581877   -2.6860091 
 2998000    2.4395691   -2.5760398 
 2999000    2.6103704   -2.6518364 
 3000000    2.5015721    -2.654404 
 3001000    2.7074064   -2.8936645 
 3002000    2.8375432   -2.9714502 
 3003000    2.5674655   -2.6821524 
 3004000     2.489785   -2.6320892 
 3005000    2.4716547   -2.6354158 
 3006000    2.5653694    -2.676336 
 3007000      2.43099   -2.5578312 
 3008000    2.1600996   -2.2518872 
 3009000    1.9562439   -2.1535422 
 3010000    2.0267424   -2.0829485 
 3011000    1.9827368   -2.0386424 
 3012000    1.9424877   -2.0382301 
 3013000    2.2773847   -2.3791748 
 3014000    2.2765695   -2.4269457 
 3015000    2.2189355   -2.4168757 
 3016000     2.244351   -2.4023833 
 3017000    2.3568416   -2.5080992 
 3018000    2.4278355   -2.5541675 
 3019000    1.9133594   -2.0811888 
 3020000    2.4678105   -2.5591735 
 3021000    2.3036276   -2.4336922 
 3022000    2.3523526   -2.4050717 
 3023000    2.5741142   -2.7080864 
 3024000    2.3776751   -2.6083437 
 3025000    2.3487763   -2.4975398 
 3026000    1.8307081   -1.9409984 
 3027000    2.0642614   -2.2084983 
 3028000    1.9948272   -2.1651618 
 3029000    2.2271472   -2.2900765 
 3030000    2.3187249   -2.4763989 
 3031000    2.3079436   -2.4434704 
 3032000    2.0214928   -2.1289984 
 3033000    2.2661973   -2.4049277 
 3034000    1.8312079   -2.0512386 
 3035000    2.1913377    -2.314849 
 3036000    2.6990826   -2.7449255 
 3037000    2.5915067   -2.7024808 
 3038000    2.4478296   -2.6746289 
 3039000    2.6410632   -2.7802441 
 3040000    2.5657518   -2.7551474 
 3041000    2.6876823   -2.8454852 
 3042000    2.5343627   -2.6755558 
 3043000     2.540662   -2.6941697 
 3044000    2.2837998   -2.4761442 
 3045000    2.2247216   -2.4212025 
 3046000    2.3455356   -2.3885224 
 3047000    2.0364613   -2.1835771 
 3048000    2.1414674   -2.2624221 
 3049000    2.5344966   -2.6877295 
 3050000    2.3378322   -2.4675956 
 3051000    2.2105176   -2.3538591 
 3052000    2.2074379   -2.3664344 
 3053000    2.2733174   -2.4536677 
 3054000     2.423589   -2.5774436 
 3055000     2.489222   -2.7009241 
 3056000    2.0032855   -2.1666975 
 3057000    2.1700044   -2.2826382 
 3058000    2.0880649    -2.212303 
 3059000    2.0897327    -2.246989 
 3060000    2.3565309   -2.5183391 
 3061000    2.1591756   -2.2653322 
 3062000    2.1026568   -2.2847154 
 3063000    2.3215401   -2.4179662 
 3064000     2.350815   -2.5067998 
 3065000    2.1589712   -2.3204552 
 3066000    2.4333068   -2.5396892 
 3067000    2.3842023   -2.4349162 
 3068000    2.2873529   -2.4438466 
 3069000    2.6207957   -2.8071644 
 3070000    2.1259047    -2.203544 
 3071000    2.2697286   -2.3401475 
 3072000    2.1926968   -2.2638972 
 3073000    2.2700834   -2.4276784 
 3074000    2.3354035   -2.4993689 
 3075000    2.3122211   -2.5346946 
 3076000    2.5610982   -2.7676285 
 3077000    2.5247933   -2.6429974 
 3078000    2.9075133   -3.0628917 
 3079000     2.696383   -2.8690637 
 3080000    2.4769245   -2.5709434 
 3081000    1.9853682   -2.1422984 
 3082000    2.2204118   -2.3644798 
 3083000    2.3819706   -2.4694264 
 3084000    2.6264847   -2.7129637 
 3085000    2.6436002   -2.8116104 
 3086000    2.3590001   -2.4543089 
 3087000    2.5879441   -2.6579974 
 3088000    2.4058797   -2.5266583 
 3089000     2.395883   -2.4258755 
 3090000    1.9858539   -2.1662967 
 3091000    2.2756296   -2.4114424 
 3092000    2.2276512   -2.3873539 
 3093000    2.1839707   -2.2357323 
 3094000    2.3678829    -2.485142 
 3095000     2.520478   -2.6451407 
 3096000    2.4495878   -2.6537519 
 3097000    2.6330354   -2.8083242 
 3098000    2.3108107   -2.5632203 
 3099000    2.5512313   -2.6747689 
 3100000    2.3213761   -2.4421436 
 3101000    2.3223925   -2.4409538 
 3102000    2.4198074   -2.6087401 
 3103000    2.3768789   -2.4581139 
 3104000    2.0515302   -2.1838068 
 3105000    1.9890044   -1.9910968 
 3106000    2.0067721   -2.1258218 
 3107000    1.9035255   -1.9924525 
 3108000    2.2075044   -2.2978032 
 3109000    2.1045757   -2.2262223 
 3110000    1.9174467   -2.0860967 
 3111000    2.2309104   -2.2478625 
 3112000    1.9033543   -2.0176965 
 3113000    1.7919575    -1.875149 
 3114000    1.6749715   -1.7981414 
 3115000    1.9106108   -2.0518631 
 3116000    1.7552093   -1.9087531 
 3117000    1.7569613   -1.8874583 
 3118000    1.9558009   -2.0454458 
 3119000    2.1322379   -2.2069095 
 3120000    2.0438841   -2.1746005 
 3121000    2.3635619   -2.4518179 
 3122000    2.2517569   -2.3990036 
 3123000    2.3814224   -2.5455492 
 3124000    2.4031515   -2.5235449 
 3125000    2.5124071   -2.6380169 
 3126000    2.3410706   -2.4734973 
 3127000    2.4764827    -2.591251 
 3128000    2.3656933   -2.5044134 
 3129000    2.6009865   -2.7566526 
 3130000     2.555443    -2.696418 
 3131000    2.6638915   -2.7992895 
 3132000    2.1822865   -2.2839101 
 3133000    2.0249049   -2.1393014 
 3134000    2.0936671   -2.2580484 
 3135000    2.0143805   -2.1083605 
 3136000     1.965334   -2.0721964 
 3137000    2.2690118   -2.4332784 
 3138000    2.3821756   -2.5873357 
 3139000    2.2592446   -2.3561284 
 3140000     2.129152   -2.2121753 
 3141000    2.1190475   -2.1983157 
 3142000    2.4723368   -2.5666043 
 3143000    2.0606971   -2.1719206 
 3144000    2.0913326   -2.1997864 
 3145000    2.0469901   -2.2911302 
 3146000    2.0569236   -2.1215066 
 3147000    1.9999096   -2.1801731 
 3148000    2.1345439   -2.2376564 
 3149000    2.0610475   -2.2580746 
 3150000    2.0365465    -2.244123 
 3151000    1.9140599    -2.124996 
 3152000     2.015203   -2.1568033 
 3153000     2.148977   -2.2259101 
 3154000    1.9402771   -2.0513054 
 3155000    1.7978234   -1.9340936 
 3156000    1.8919151   -1.9726885 
 3157000    1.6012891   -1.7201446 
 3158000    1.5220465    -1.668987 
 3159000     1.708061   -1.8260507 
 3160000    2.1412591   -2.2907151 
 3161000    1.8951522    -2.059913 
 3162000    2.1063333   -2.2008402 
 3163000     2.207347   -2.2956794 
 3164000    2.1622787   -2.2625717 
 3165000    2.3029189   -2.4971798 
 3166000    2.4575354   -2.4659709 
 3167000    2.3758974   -2.4655511 
 3168000    2.1494734   -2.2662149 
 3169000    2.3904015   -2.5380466 
 3170000     2.414482   -2.5750056 
 3171000    2.2478013   -2.3893598 
 3172000    1.9483993   -2.0195123 
 3173000    1.8975918   -2.0649628 
 3174000     2.135743   -2.2027037 
 3175000    1.6481486   -1.7800241 
 3176000    1.7439588   -1.8574354 
 3177000    1.8901421    -2.102902 
 3178000    2.0586367   -2.1539434 
 3179000    2.1963656   -2.3045573 
 3180000    2.2790517    -2.429998 
 3181000     2.308732   -2.4333037 
 3182000    2.0763346   -2.2429122 
 3183000    1.9470163   -2.0972913 
 3184000    1.9245974   -2.1065088 
 3185000    2.3143992   -2.4629227 
 3186000    2.1790836   -2.2938327 
 3187000    2.1227679   -2.2418952 
 3188000    2.1615197   -2.3019127 
 3189000    2.0339578   -2.1667187 
 3190000    2.2354796   -2.3853695 
 3191000     2.080191   -2.1941074 
 3192000    1.7365591   -1.8564259 
 3193000     1.744961   -1.9174816 
 3194000    1.6714491   -1.7143898 
 3195000    1.7570261   -1.9676529 
 3196000    1.6446782   -1.7416127 
 3197000    1.8272299    -1.880725 
 3198000    2.0696779   -2.2211748 
 3199000    1.9165938   -1.9991324 
 3200000    2.4701302   -2.4417149 
 3201000    2.0596984   -2.2001704 
 3202000    1.9571058   -2.0824859 
 3203000    2.2158597   -2.3054443 
 3204000    2.1050007   -2.2114549 
 3205000    1.9658128   -2.1285211 
 3206000     2.420648   -2.5205784 
 3207000    2.5758084   -2.6869649 
 3208000    2.5168857   -2.6146751 
 3209000     2.580505   -2.7242218 
 3210000    2.1690134   -2.2714486 
 3211000    2.2547917   -2.3230419 
 3212000    2.2943793   -2.4934241 
 3213000    2.5943662   -2.7610905 
 3214000    2.3023241   -2.4319483 
 3215000    2.2663666   -2.4665746 
 3216000    2.2083788   -2.3993344 
 3217000    2.2138124   -2.3287196 
 3218000    2.0744288   -2.1280352 
 3219000    2.2042521   -2.3043725 
 3220000    2.0379381   -2.1592493 
 3221000    2.2608625   -2.4171475 
 3222000    2.1155287   -2.2341881 
 3223000    2.3241684   -2.4606441 
 3224000     2.259716   -2.4499385 
 3225000    2.3325868   -2.4440302 
 3226000    2.6440046   -2.6791722 
 3227000    2.3126447   -2.4416778 
 3228000    2.0104965   -2.1507201 
 3229000    2.2210685     -2.49112 
 3230000    2.6065737   -2.6545074 
 3231000    2.4308637   -2.5885718 
 3232000    2.6650348    -2.911036 
 3233000    2.2876697   -2.4165404 
 3234000    2.5058649   -2.6735596 
 3235000    2.5451351   -2.5895718 
 3236000    2.4711675   -2.5934637 
 3237000    2.3967595   -2.5572898 
 3238000    1.8780961   -1.9966726 
 3239000    2.2242592   -2.4002632 
 3240000    2.4247958   -2.6932156 
 3241000    2.2483649   -2.3824712 
 3242000    2.4273721   -2.5505771 
 3243000    2.1038148   -2.2735553 
 3244000    2.0716526   -2.2332389 
 3245000    2.0135067   -2.1845937 
 3246000     1.815881   -1.9752392 
 3247000    2.0456402   -2.2123918 
 3248000    2.1412762   -2.3241551 
 3249000    2.4677127   -2.6199436 
 3250000     2.495014   -2.5889083 
 3251000    2.2611099   -2.3287426 
 3252000    2.2371353   -2.3239247 
 3253000    2.1757152    -2.270016 
 3254000    2.2743416   -2.4331107 
 3255000    2.2441178    -2.403316 
 3256000    2.3986492    -2.542061 
 3257000    2.4083013   -2.5002659 
 3258000    2.4581656   -2.5517063 
 3259000    2.2487024   -2.3048365 
 3260000    2.2376081   -2.4302707 
 3261000    2.2458491   -2.3917272 
 3262000    2.2866861   -2.3827273 
 3263000    2.4629345   -2.6180244 
 3264000    2.3852129   -2.5074267 
 3265000    2.3863796   -2.5403608 
 3266000    1.9759938   -2.0192091 
 3267000    2.0105119    -2.216771 
 3268000     1.891338   -2.0868748 
 3269000    2.2586927   -2.3540504 
 3270000     2.382916   -2.4946382 
 3271000    2.2156752   -2.3396772 
 3272000    2.4277445   -2.5669582 
 3273000    2.3862082   -2.5332041 
 3274000     2.367521   -2.4464965 
 3275000     2.361418   -2.5365926 
 3276000    2.2981165   -2.3784479 
 3277000    2.1922216   -2.2949818 
 3278000     2.356482   -2.4740805 
 3279000    2.3751821   -2.5780098 
 3280000    2.7992692    -2.948061 
 3281000    2.9589081   -3.0816517 
 3282000    2.5359327   -2.7061731 
 3283000    2.3917621    -2.518525 
 3284000    2.4067828   -2.6132205 
 3285000    2.3632623   -2.5207526 
 3286000    2.3768876   -2.5460325 
 3287000    2.3034167   -2.4479451 
 3288000    2.4618856   -2.6189081 
 3289000    2.6108655   -2.7003729 
 3290000    2.3831984   -2.5094259 
 3291000    2.4548548   -2.5463928 
 3292000     2.154289      -2.3018 
 3293000    2.3110134   -2.4197205 
 3294000    2.1415252   -2.2420287 
 3295000    2.6280572   -2.7887105 
 3296000    2.5664615   -2.6676557 
 3297000    2.1496641   -2.3122948 
 3298000    1.9510486   -2.0858653 
 3299000    2.1024297    -2.279644 
 3300000    2.1124136   -2.2686966 
 3301000    2.3081154   -2.5034674 
 3302000    2.0427786   -2.1951462 
 3303000    2.0668841   -2.1342233 
 3304000    1.9623314   -2.1078627 
 3305000     2.189214   -2.2696214 
 3306000    2.0645325   -2.1763302 
 3307000    2.1206617   -2.2308261 
 3308000    1.9678375   -2.0727378 
 3309000    2.1044624   -2.2039346 
 3310000    2.1564689    -2.261957 
 3311000    2.1418943   -2.2270026 
 3312000    2.1449472   -2.2809638 
 3313000    2.0743075   -2.1890372 
 3314000    1.9864379   -2.0591795 
 3315000    1.9204431   -1.9404164 
 3316000    2.5266326   -2.6384321 
 3317000    2.3308292   -2.4770909 
 3318000     2.297324   -2.3748275 
 3319000    2.1621981     -2.27618 
 3320000    2.4470522   -2.6344526 
 3321000    2.1408169   -2.2125746 
 3322000    2.0048641   -2.1765458 
 3323000    1.6710982   -1.9213245 
 3324000    2.0816174   -2.1450679 
 3325000    1.8343048   -1.9288448 
 3326000    2.3094537   -2.4167124 
 3327000     2.019507   -2.1748144 
 3328000    2.0601134   -2.0821819 
 3329000    2.0475243   -2.1463606 
 3330000    2.5190754   -2.7415711 
 3331000    2.6688864   -2.8177329 
 3332000    2.6885382    -2.752245 
 3333000    2.5117267   -2.6484037 
 3334000    2.3481349   -2.4735065 
 3335000    2.4996561   -2.6607862 
 3336000    2.2517993   -2.4045172 
 3337000    2.4994281   -2.6281114 
 3338000    2.4330485   -2.6175655 
 3339000    2.2825847   -2.4463351 
 3340000    1.9442114   -2.1036658 
 3341000    2.1928621   -2.3175691 
 3342000    2.5056427   -2.6966629 
 3343000    2.4582744   -2.6359375 
 3344000    2.5837458   -2.7479123 
 3345000     2.449596   -2.5312796 
 3346000    2.4598559   -2.6235716 
 3347000    2.3667669   -2.5639985 
 3348000    2.1507499   -2.2409711 
 3349000    1.8149361   -1.8306324 
 3350000    1.7762208   -1.8992605 
 3351000    1.9810893   -2.1828086 
 3352000    2.3743652   -2.5301633 
 3353000    2.1996553    -2.318314 
 3354000    2.2002746   -2.3874926 
 3355000    2.4063444   -2.4322252 
 3356000    2.2883166   -2.4638717 
 3357000    2.3890278   -2.5372917 
 3358000    2.3396528   -2.5074802 
 3359000    2.4169273   -2.5661856 
 3360000    2.4767813   -2.5493873 
 3361000    2.2878953   -2.4110376 
 3362000    2.2389467   -2.3139116 
 3363000    2.2664468   -2.3761276 
 3364000     2.157145   -2.3039999 
 3365000    2.2358022   -2.2692113 
 3366000     2.241337   -2.3844105 
 3367000    2.4496576   -2.5445324 
 3368000    2.5751864   -2.6923528 
 3369000    2.4616085   -2.6385297 
 3370000    2.1739357   -2.2987347 
 3371000    2.1696777   -2.2603449 
 3372000    2.2990866   -2.4035618 
 3373000     2.336856   -2.4826121 
 3374000    2.6731123   -2.6867955 
 3375000    2.4342167   -2.5718338 
 3376000    2.7160067   -2.8164479 
 3377000    2.4726294   -2.6235254 
 3378000    2.3206545   -2.4056751 
 3379000    2.6455542   -2.8184907 
 3380000    2.7945102   -2.8714063 
 3381000    2.2769162   -2.5192971 
 3382000    2.3509059   -2.5433972 
 3383000    2.4025244   -2.4795423 
 3384000    2.2802311   -2.3736531 
 3385000    2.3221917   -2.5394488 
 3386000    2.5159168   -2.5524215 
 3387000    2.2538779   -2.4401211 
 3388000    2.1465397   -2.1999352 
 3389000    1.9799164   -2.0568018 
 3390000     1.855154   -1.8988789 
 3391000    1.9275301   -2.1452173 
 3392000    2.4296658   -2.6069159 
 3393000    2.3086942   -2.4141259 
 3394000    2.3786384   -2.4940676 
 3395000    2.4733488   -2.5826291 
 3396000    2.6343807   -2.7346085 
 3397000    2.2994672   -2.3852033 
 3398000     2.463191   -2.5989899 
 3399000    2.4144264    -2.628444 
 3400000    2.4430978   -2.5238602 
 3401000    2.7023348   -2.9042373 
 3402000    2.5598194    -2.727924 
 3403000    2.1506768   -2.2263145 
 3404000    2.0921111    -2.326868 
 3405000    2.2797709   -2.3152226 
 3406000    2.1753505     -2.35391 
 3407000    2.0047637   -2.1317818 
 3408000    2.3506363    -2.356627 
 3409000    2.2939674   -2.4708784 
 3410000    2.7079781   -2.8000533 
 3411000    2.4081013   -2.5168982 
 3412000    2.2020816   -2.3843139 
 3413000    2.2537323   -2.4168165 
 3414000    2.4033248   -2.5011098 
 3415000    2.5157615   -2.6113848 
 3416000    2.1660781    -2.390006 
 3417000    2.2965224   -2.4675369 
 3418000    2.2284079   -2.3852255 
 3419000    2.6563604   -2.7543369 
 3420000    2.7344407   -2.8542518 
 3421000    2.5400449   -2.6725895 
 3422000    2.2966377    -2.374153 
 3423000    2.6313494   -2.7430638 
 3424000    2.7089979   -2.8883483 
 3425000    2.2745486    -2.394087 
 3426000    2.4505051   -2.5955904 
 3427000    2.5278021   -2.6767616 
 3428000    2.7325933   -2.8888507 
 3429000    2.5966158   -2.7355909 
 3430000    2.7771816   -2.8459693 
 3431000    3.0082919   -3.0546649 
 3432000    2.4798286   -2.6540603 
 3433000    2.3888744   -2.4801011 
 3434000    2.8557202   -2.9617816 
 3435000     2.648327   -2.7475424 
 3436000    2.4933051     -2.61746 
 3437000     2.321286   -2.3836482 
 3438000     2.354157   -2.5131348 
 3439000    2.4303453   -2.5786107 
 3440000    2.2107569    -2.360749 
 3441000    2.0110782   -2.1479596 
 3442000    2.5367988   -2.7480461 
 3443000    2.8836887    -2.970469 
 3444000    2.5051996   -2.6570356 
 3445000    2.5752061   -2.6704131 
 3446000    2.4966203   -2.6381232 
 3447000    2.4648806    -2.624262 
 3448000    2.4453941   -2.6083349 
 3449000    2.4761907   -2.6012621 
 3450000    2.5974805    -2.765422 
 3451000    2.3354346   -2.5481687 
 3452000    2.4108574    -2.480331 
 3453000    2.0558822   -2.2339221 
 3454000    2.4126431   -2.5351699 
 3455000    2.4938165   -2.5803167 
 3456000    2.5260599   -2.6397223 
 3457000    2.5138235   -2.6250456 
 3458000    2.8887709   -3.0094534 
 3459000    2.4466106    -2.571613 
 3460000    2.3937834   -2.5097663 
 3461000    2.1111765   -2.1931257 
 3462000    2.3619534   -2.4815523 
 3463000    2.4635727    -2.592987 
 3464000    2.0940061   -2.1881208 
 3465000    2.6839851   -2.9416182 
 3466000    3.0936009   -3.1686884 
 3467000    2.3513967   -2.4649865 
 3468000     2.504323   -2.6118073 
 3469000    2.3496185   -2.4616344 
 3470000    2.1878936   -2.3057251 
 3471000    2.4144046   -2.6364115 
 3472000    2.5887848   -2.7769179 
 3473000     2.275985   -2.4164583 
 3474000    2.6135946   -2.6857939 
 3475000    2.7314136   -2.7164515 
 3476000    2.4333766   -2.6022879 
 3477000    2.3586356   -2.4719061 
 3478000    1.9968865   -2.1331575 
 3479000    2.0998965   -2.2113134 
 3480000    2.4032975   -2.4662265 
 3481000    2.1131659   -2.3323959 
 3482000    2.0413334   -2.2400272 
 3483000    2.3785451   -2.4536242 
 3484000    2.1824187   -2.2934109 
 3485000    2.0789017   -2.1848124 
 3486000    2.0975835   -2.2462373 
 3487000     2.446936   -2.6237693 
 3488000    2.4224987   -2.6093049 
 3489000    2.3722357   -2.4632263 
 3490000     2.360709   -2.4986122 
 3491000    2.5695505   -2.6336962 
 3492000    2.5265346   -2.6273215 
 3493000    2.5308595    -2.613583 
 3494000    2.2418374   -2.4125176 
 3495000     2.003018   -2.2347099 
 3496000    2.4733031   -2.5711574 
 3497000    2.4000157   -2.5371723 
 3498000    2.0873922   -2.2436412 
 3499000    2.1620064   -2.2804972 
 3500000    2.0396452   -2.2753529 
 3501000    2.1688365   -2.3191385 
 3502000    2.3227117   -2.5233497 
 3503000    2.2578081   -2.3723674 
 3504000    2.2874688   -2.4480732 
 3505000    2.0740636   -2.2804288 
 3506000    2.3118503   -2.4367465 
 3507000    2.3150151   -2.5058186 
 3508000    2.0434404   -2.1775663 
 3509000    2.4587915   -2.5847086 
 3510000    2.6273706   -2.7865253 
 3511000    2.6766384    -2.782217 
 3512000    2.6831892    -2.812764 
 3513000    2.6481547   -2.8001413 
 3514000    2.8030954     -2.93076 
 3515000    2.1753876   -2.2659093 
 3516000    2.3879986   -2.4375119 
 3517000    2.4546693   -2.6005886 
 3518000    2.2815647   -2.4097667 
 3519000    2.2551581   -2.3469118 
 3520000     2.465752   -2.6219242 
 3521000    2.5021497   -2.6157638 
 3522000    2.3907592   -2.4317065 
 3523000    2.1988441   -2.3467949 
 3524000    2.4649579   -2.5574394 
 3525000    2.5124264   -2.5837211 
 3526000    2.3367911   -2.5532225 
 3527000    2.4090219   -2.5374968 
 3528000    2.6876224   -2.9344652 
 3529000    2.4639113   -2.5619114 
 3530000    2.1891467   -2.3205504 
 3531000    2.1926771   -2.3592698 
 3532000    2.2617244   -2.3509089 
 3533000    2.5386483   -2.6952739 
 3534000    2.4807202    -2.633266 
 3535000    2.2449374   -2.3298689 
 3536000    2.3219569   -2.4246469 
 3537000    2.4142047   -2.5688743 
 3538000    2.3602277   -2.4770299 
 3539000       2.2867     -2.38718 
 3540000    2.1734625    -2.319261 
 3541000    2.4135919   -2.5408781 
 3542000    2.2541306   -2.4450662 
 3543000    2.4260713   -2.4666767 
 3544000    2.4763858   -2.6175771 
 3545000    2.4366268   -2.5401095 
 3546000        2.261    -2.315275 
 3547000    2.3824433    -2.517185 
 3548000     2.171293   -2.2605859 
 3549000    2.5394378   -2.6796173 
 3550000    2.3819458   -2.5692077 
 3551000    2.6710718   -2.8692653 
 3552000    2.5604169   -2.6578312 
 3553000    2.7723293   -2.9133589 
 3554000    2.2709878   -2.3699634 
 3555000    2.2307854   -2.4132853 
 3556000    2.2496543   -2.3804617 
 3557000    2.2104787   -2.4119581 
 3558000      2.39248   -2.5537439 
 3559000    1.9494153     -2.08424 
 3560000    2.0252442   -2.1123315 
 3561000    2.0697081    -2.222247 
 3562000    2.5025308   -2.6546069 
 3563000    2.2502079   -2.3933589 
 3564000    2.2962421    -2.421314 
 3565000    2.2647742   -2.4502906 
 3566000    2.2934369   -2.4433069 
 3567000    2.2113713   -2.3095967 
 3568000    2.0768468   -2.2431197 
 3569000    2.1466837   -2.1987103 
 3570000    2.4323895   -2.4957608 
 3571000    2.3094538   -2.3637562 
 3572000    2.3833409    -2.441756 
 3573000    2.4739488   -2.6154154 
 3574000    2.2293768   -2.3073458 
 3575000    2.0874278   -2.2424473 
 3576000    2.0342302   -2.2100748 
 3577000    2.0629689    -2.131061 
 3578000    2.2304014   -2.3522699 
 3579000    2.3803587   -2.5343684 
 3580000    2.2022282   -2.3585122 
 3581000    2.2774345    -2.381609 
 3582000    2.2749694   -2.4313524 
 3583000    2.2646745   -2.4605034 
 3584000    2.2022316   -2.3713546 
 3585000    2.1670144   -2.3095792 
 3586000      2.33222   -2.4619776 
 3587000    2.2620346   -2.3649358 
 3588000    2.1849713   -2.3184982 
 3589000    2.4212016   -2.4818753 
 3590000    2.4006277   -2.5013574 
 3591000     2.092016   -2.2590672 
 3592000    2.0125237   -2.0496342 
 3593000    2.0369933   -2.1250608 
 3594000    1.6739007   -1.7847229 
 3595000    1.6201956   -1.6994457 
 3596000    2.2440909   -2.3912464 
 3597000    2.1957991   -2.3275384 
 3598000    2.4835837   -2.6413289 
 3599000    2.2291471   -2.3130168 
 3600000    2.0767924   -2.2161684 
 3601000    2.0743051   -2.1139607 
 3602000    1.6988979   -1.7802962 
 3603000    1.8953443   -2.0232879 
 3604000     2.233814   -2.3522119 
 3605000    1.8724125    -2.019504 
 3606000    1.9003905   -2.0891013 
 3607000     2.324654   -2.3914559 
 3608000    2.1455388   -2.2499276 
 3609000     2.162102   -2.3402548 
 3610000    1.9843124   -2.0565948 
 3611000     2.349921   -2.4623446 
 3612000    2.3519033   -2.5375592 
 3613000    2.0567121   -2.1510617 
 3614000    1.8616789   -2.0029516 
 3615000    1.8368162   -1.8721811 
 3616000    2.0438419   -2.2087552 
 3617000    1.9131262   -2.0768737 
 3618000    1.9862935   -2.1230011 
 3619000    2.0722612   -2.2414821 
 3620000    1.8663006   -2.0654065 
 3621000    1.8619159   -1.9692334 
 3622000    2.0774343   -2.2008509 
 3623000    2.1273667   -2.3213024 
 3624000    2.5310865   -2.5919534 
 3625000    1.8665676   -1.9726549 
 3626000    2.0740961   -2.1158661 
 3627000    2.0306762   -2.1504341 
 3628000    2.3026421   -2.5259306 
 3629000    2.0737607   -2.1462886 
 3630000    2.1126703   -2.1987424 
 3631000     2.197774   -2.2662944 
 3632000    2.1385879   -2.2647829 
 3633000    2.1907804   -2.3051745 
 3634000    1.9928592   -2.1175601 
 3635000    2.2892608   -2.3820472 
 3636000    2.1886611   -2.3736041 
 3637000    2.2332105    -2.355478 
 3638000    2.1147707   -2.3120141 
 3639000    1.9174287   -2.0853455 
 3640000    2.2493071   -2.4595074 
 3641000     2.050963   -2.1876579 
 3642000    2.2326214   -2.4001129 
 3643000     2.233269   -2.4147902 
 3644000    2.4444759   -2.5365841 
 3645000    2.1354068   -2.3340628 
 3646000    2.1315354   -2.2913998 
 3647000    2.1968798   -2.2135696 
 3648000    2.1051342   -2.1842676 
 3649000     2.228902   -2.3717918 
 3650000    2.1943158   -2.2247653 
 3651000    2.1496305   -2.2364991 
 3652000    2.2854394   -2.4021239 
 3653000    1.9325413   -2.1637436 
 3654000    2.2779825   -2.3820167 
 3655000    2.3153372   -2.4046607 
 3656000    2.2987226   -2.5328414 
 3657000    2.3860135   -2.5133927 
 3658000    2.2070462   -2.3905763 
 3659000    2.0502229   -2.1689549 
 3660000    1.9501606    -2.091301 
 3661000    1.7555433   -1.8451404 
 3662000    1.9995029   -2.1284238 
 3663000    2.1747271    -2.207832 
 3664000    2.3671068   -2.5114885 
 3665000    1.9604515   -2.0620409 
 3666000    2.1047061   -2.2278704 
 3667000    2.4123589   -2.5219727 
 3668000    2.2699882   -2.4511886 
 3669000    2.4822769   -2.6620599 
 3670000    2.2828493   -2.3859088 
 3671000     2.557135   -2.6246517 
 3672000    2.1823905   -2.3937335 
 3673000    2.0864765    -2.294081 
 3674000    2.0214911    -2.071328 
 3675000    1.9705186   -2.1029491 
 3676000    2.0520897     -2.19607 
 3677000     2.268633   -2.4889202 
 3678000    2.2403668   -2.3769459 
 3679000    2.4057262   -2.5399806 
 3680000    2.3864277   -2.4433882 
 3681000    2.1088604   -2.2361611 
 3682000    2.1513241   -2.2134592 
 3683000    2.0304467   -2.1224709 
 3684000    2.4496308   -2.5609565 
 3685000    2.3528402   -2.4379158 
 3686000    2.3359045   -2.4652953 
 3687000     2.041256   -2.2117141 
 3688000    2.0952315    -2.231613 
 3689000    2.0263367   -2.2124892 
 3690000    2.3144137   -2.4857043 
 3691000    2.3891963   -2.5766954 
 3692000    2.3850299   -2.5970471 
 3693000    2.6724726   -2.8987844 
 3694000    2.5603585   -2.6942145 
 3695000    2.1265116   -2.2716453 
 3696000    2.2457279   -2.3647738 
 3697000    2.2703744   -2.3998467 
 3698000    2.1008921   -2.2026131 
 3699000    1.8513149   -1.9923076 
 3700000    2.0521262   -2.2162831 
 3701000    2.2464397   -2.3573478 
 3702000    2.3076582   -2.3671964 
 3703000    2.3429357    -2.523951 
 3704000    2.3861465   -2.5912988 
 3705000    2.4642149   -2.5409218 
 3706000    2.6087952   -2.7479682 
 3707000     2.391919   -2.5297719 
 3708000    2.3134538   -2.5186107 
 3709000    2.4138185   -2.5550424 
 3710000    2.2049305   -2.3384482 
 3711000    2.4268343   -2.5060259 
 3712000    2.1287642   -2.2848655 
 3713000    2.4378837   -2.6153166 
 3714000    2.5996632   -2.8084719 
 3715000    2.6549605   -2.8441519 
 3716000    2.6989364   -2.7967866 
 3717000    2.1272928   -2.3132155 
 3718000    2.2063096   -2.2865294 
 3719000    2.2658988   -2.4822565 
 3720000    2.2214621    -2.336762 
 3721000    2.4662634   -2.5164157 
 3722000     2.143457    -2.285057 
 3723000    2.4664725   -2.5890197 
 3724000    2.3404018   -2.4782749 
 3725000    2.1654579   -2.3421199 
 3726000    2.2621639   -2.4474128 
 3727000     2.330647   -2.4637221 
 3728000    2.4020715   -2.5177093 
 3729000    2.5949961   -2.7337694 
 3730000     2.277584   -2.4811764 
 3731000    2.4493919   -2.5485054 
 3732000    2.5016601   -2.5949975 
 3733000    2.1113974   -2.3024869 
 3734000    2.1212235   -2.2454912 
 3735000    2.2780829   -2.3978018 
 3736000    2.2418169   -2.3222496 
 3737000    2.1770407   -2.2136503 
 3738000    2.2271012   -2.3722105 
 3739000    2.3751207   -2.5274343 
 3740000    2.5504833   -2.6342197 
 3741000    2.1654159   -2.2574752 
 3742000    2.0338791   -2.1397339 
 3743000     2.087969   -2.2582349 
 3744000    2.0485174   -2.1484669 
 3745000    2.0338099    -2.151846 
 3746000    1.9976911   -2.1359087 
 3747000    1.9643495   -2.0538774 
 3748000    1.7947802   -1.9525055 
 3749000    2.2610253   -2.3231809 
 3750000    2.3349473   -2.4198892 
 3751000    2.2798101   -2.3814531 
 3752000    2.3218471   -2.4409903 
 3753000    2.3325544   -2.5681676 
 3754000    2.4262397   -2.5736946 
 3755000    2.2479007   -2.4239435 
 3756000    1.8007099   -1.9205077 
 3757000    1.8678764    -2.050028 
 3758000    2.2490825   -2.3454623 
 3759000    2.3961899   -2.5379353 
 3760000    2.4261707   -2.6048369 
 3761000    2.0469871   -2.1105494 
 3762000    2.2171682   -2.2591555 
 3763000    2.3601186   -2.5293539 
 3764000    2.6221598   -2.7482442 
 3765000    2.5116661   -2.6319594 
 3766000    2.3569815   -2.5513062 
 3767000    2.1422674   -2.2755605 
 3768000    2.1689536   -2.2869555 
 3769000    2.3783114   -2.4720799 
 3770000    2.4714347    -2.565378 
 3771000     2.556915   -2.6567695 
 3772000    2.3933073   -2.4183129 
 3773000    2.3877873   -2.5552979 
 3774000    2.5342263   -2.6876902 
 3775000    2.4844058   -2.6148247 
 3776000    2.6318997    -2.674513 
 3777000    2.2932016   -2.5119287 
 3778000    2.2748646    -2.423837 
 3779000    2.2756677   -2.3918541 
 3780000    2.5424976   -2.7399322 
 3781000    2.2845191   -2.4995954 
 3782000    2.3889499   -2.5171882 
 3783000    2.4620421   -2.6343661 
 3784000    2.5219225   -2.7306439 
 3785000    2.3388169   -2.4047089 
 3786000    2.1985984   -2.3691726 
 3787000    2.3190739   -2.4571469 
 3788000    2.1006011   -2.2529821 
 3789000    2.2946644   -2.4441154 
 3790000    1.8751824   -1.9932141 
 3791000    1.8477252   -1.9852788 
 3792000    2.0266507   -2.0923462 
 3793000    2.2116452   -2.2426626 
 3794000    2.2080811   -2.3456225 
 3795000    2.2521998   -2.4475718 
 3796000    2.3431352   -2.4765557 
 3797000    2.6007101   -2.7332625 
 3798000    2.5062275   -2.6167051 
 3799000    2.5222028   -2.7111101 
 3800000    2.3024715   -2.4002653 
 3801000    2.1413446   -2.2142952 
 3802000    2.4522146    -2.556472 
 3803000    2.1865145   -2.3978398 
 3804000    2.5376549   -2.6591661 
 3805000     2.624993   -2.7989573 
 3806000    2.5354834   -2.6713096 
 3807000    2.6409347   -2.7939279 
 3808000    2.5824179   -2.5968135 
 3809000    2.4678315   -2.7048368 
 3810000    2.6657018   -2.7937445 
 3811000    2.2287704    -2.337043 
 3812000    2.3000733   -2.4447706 
 3813000    2.1872038   -2.2759244 
 3814000    2.3842263   -2.4499846 
 3815000    2.3271362   -2.5366852 
 3816000    2.4575374   -2.5012735 
 3817000    2.4080025   -2.4168639 
 3818000    2.4405763   -2.6280799 
 3819000    2.4516246   -2.5575722 
 3820000    2.3229704   -2.4496688 
 3821000    2.0882172   -2.2546368 
 3822000    2.3555828   -2.5361321 
 3823000    2.1457093   -2.2582735 
 3824000    2.1005664   -2.1672579 
 3825000    2.3100332   -2.4226037 
 3826000    2.1960568   -2.4305912 
 3827000    2.7889182   -2.9042099 
 3828000    2.8692079   -2.9488098 
 3829000    2.5196658   -2.6378633 
 3830000    2.5339767   -2.6509878 
 3831000    2.3580085   -2.6340203 
 3832000    2.6420962   -2.7570611 
 3833000    2.5830351   -2.7039773 
 3834000    2.5077758   -2.6275247 
 3835000    2.3798284   -2.4930161 
 3836000    2.3712597    -2.467609 
 3837000    2.5210921   -2.5965618 
 3838000    2.4272525   -2.5147683 
 3839000    2.3442232   -2.4453496 
 3840000     2.473344   -2.5622798 
 3841000    2.2089791   -2.2773894 
 3842000    2.3296233   -2.4126485 
 3843000    2.4401559   -2.5169174 
 3844000    2.2984825   -2.4016858 
 3845000    2.3578045   -2.4611987 
 3846000     2.024917   -2.0886801 
 3847000      2.15495   -2.2948013 
 3848000    1.8818965   -2.0756235 
 3849000    1.7685013   -1.9279804 
 3850000    1.6690611   -1.8317577 
 3851000    1.8556854   -1.9812274 
 3852000    1.9528998   -2.0702885 
 3853000    1.9624761   -2.0716974 
 3854000     2.285764   -2.3234085 
 3855000    2.0839742   -2.2305615 
 3856000     2.306551   -2.4631342 
 3857000    2.3649313   -2.4566998 
 3858000    2.1126352    -2.229506 
 3859000     2.104529    -2.258365 
 3860000    1.9897701   -2.0128171 
 3861000    2.0708704   -2.1223318 
 3862000    2.4567335   -2.5179876 
 3863000    2.3613782   -2.4670932 
 3864000     2.305307   -2.4542396 
 3865000    2.0927119   -2.2231464 
 3866000    2.1198002   -2.3019436 
 3867000    1.9741653    -2.089397 
 3868000    2.0067312   -2.1683735 
 3869000     2.107653   -2.2105956 
 3870000    2.3767211    -2.557892 
 3871000    2.2961405   -2.3716672 
 3872000    2.4136332   -2.5731209 
 3873000    2.4803039   -2.5814793 
 3874000    2.5724974   -2.6834434 
 3875000    2.5889379    -2.683325 
 3876000    2.2547921   -2.4315881 
 3877000    2.2107682   -2.3339055 
 3878000    2.2093511    -2.304823 
 3879000    2.4557488   -2.5354176 
 3880000    2.3125766   -2.3777867 
 3881000    2.1472603   -2.2609838 
 3882000    2.2589892   -2.4212288 
 3883000    2.3110716   -2.3350722 
 3884000     2.056041   -2.2202365 
 3885000    2.0198739   -2.1727023 
 3886000    2.0094111   -2.1296374 
 3887000    2.1952566   -2.2267433 
 3888000    2.2537538   -2.4251535 
 3889000    1.9011968   -2.0145092 
 3890000    2.1588133   -2.3160568 
 3891000    2.3732915   -2.5069717 
 3892000     2.030679   -2.1903251 
 3893000    2.0282217   -2.1580408 
 3894000    2.3058362   -2.4621553 
 3895000    2.1362722   -2.2921708 
 3896000    1.7631691   -1.9595293 
 3897000    2.1951727   -2.3103624 
 3898000    2.2238485   -2.4198584 
 3899000     2.512882   -2.6710145 
 3900000    2.5327696   -2.6825193 
 3901000    2.5000541   -2.6747486 
 3902000    2.2627769   -2.4408557 
 3903000     2.506555   -2.6530051 
 3904000    2.4260368   -2.5072173 
 3905000    2.4886909   -2.6605781 
 3906000    2.2808054   -2.4149387 
 3907000     2.128729   -2.2304861 
 3908000    2.1698438   -2.3333635 
 3909000    1.9392504   -2.1087256 
 3910000    2.1924461   -2.3472969 
 3911000    2.3668311    -2.535226 
 3912000     2.380041   -2.4439887 
 3913000     2.131143    -2.271129 
 3914000    2.1392457   -2.3358284 
 3915000    2.2876492   -2.3403294 
 3916000    1.9929524   -2.1927294 
 3917000    2.0010463   -2.0956539 
 3918000    1.8878926   -1.9366618 
 3919000    2.1193527   -2.2519885 
 3920000    2.1906002   -2.3274043 
 3921000    2.3086485   -2.4537032 
 3922000    2.3871566   -2.5747415 
 3923000    2.3386927   -2.4418144 
 3924000    1.8731661   -2.0637652 
 3925000    2.0713108    -2.137258 
 3926000    1.9485919   -2.1280262 
 3927000    1.7211189   -1.8548261 
 3928000    2.1728205   -2.2434526 
 3929000    1.9730738   -2.0903401 
 3930000     2.202882   -2.3543113 
 3931000    2.1808244   -2.3057088 
 3932000     2.315237   -2.4260844 
 3933000    2.1953871   -2.3316307 
 3934000    2.3887491   -2.6266707 
 3935000    2.5952012   -2.6868064 
 3936000    2.4029153   -2.5679804 
 3937000    2.5227525   -2.7109387 
 3938000     2.153758   -2.4179642 
 3939000    1.9215035   -2.0911354 
 3940000    2.1827426   -2.2238291 
 3941000    2.0599106    -2.231632 
 3942000    2.2495378   -2.3920173 
 3943000    2.0656602   -2.2694402 
 3944000    2.4500921   -2.5987524 
 3945000    2.1510309   -2.2827315 
 3946000    1.9267958   -1.9907736 
 3947000    1.9359176   -2.1153768 
 3948000    2.2292692   -2.2960703 
 3949000    2.1196247   -2.3152488 
 3950000    2.3858155   -2.5260953 
 3951000    2.3406253   -2.5117835 
 3952000    2.4721475   -2.6165478 
 3953000    2.1647411   -2.2565753 
 3954000    1.7701878   -1.8573203 
 3955000    1.9733026   -2.1156923 
 3956000    2.2466566   -2.3589187 
 3957000    2.2105963   -2.3671716 
 3958000    1.9559842   -2.0518762 
 3959000    2.1695902   -2.2412836 
 3960000    2.0942583   -2.1037245 
 3961000    2.0101943   -2.1329387 
 3962000    2.0317392   -2.1633171 
 3963000    1.9453245   -2.0633677 
 3964000    1.8897796   -2.0390662 
 3965000     2.221842   -2.4332086 
 3966000    2.0735398   -2.2066333 
 3967000    2.0128349   -2.1724141 
 3968000    2.3167089   -2.4131606 
 3969000    2.0176261   -2.1627218 
 3970000    2.1863388   -2.2234383 
 3971000    1.7402581   -1.8915943 
 3972000    1.7815178   -1.8747332 
 3973000    1.9513129   -2.0401548 
 3974000    1.8770988   -1.9362438 
 3975000    2.1166401   -2.1820108 
 3976000     2.225591   -2.3228154 
 3977000    2.3382339   -2.4566645 
 3978000     2.523282   -2.5659529 
 3979000    2.3383175    -2.438724 
 3980000    2.5399184   -2.6369689 
 3981000    2.6294852   -2.7808961 
 3982000    2.4534763    -2.515089 
 3983000    2.2159234   -2.3828583 
 3984000    2.0587416   -2.2457795 
 3985000    2.1591055   -2.3803527 
 3986000    2.1304007   -2.2694234 
 3987000    2.2211477   -2.3155483 
 3988000    1.9689936   -2.0719225 
 3989000    1.8925509   -1.9883978 
 3990000    2.1987006   -2.2640991 
 3991000    2.2112717   -2.3222919 
 3992000    1.9947518   -2.1455337 
 3993000    1.9668941   -2.0940019 
 3994000    2.5974941   -2.7149748 
 3995000    2.5086082   -2.6159041 
 3996000    2.1167575   -2.2745345 
 3997000    2.4823238   -2.5962772 
 3998000    2.6494711   -2.7556631 
 3999000    2.3172785    -2.447583 
 4000000     2.649435   -2.7885894 
 4001000    2.5444613   -2.7955409 
 4002000    2.5736779   -2.6783549 
 4003000     2.571507   -2.7648605 
 4004000    2.3080088   -2.4135628 
 4005000    2.3790173   -2.4653741 
 4006000    2.3468969   -2.4220389 
 4007000    2.0448759   -2.1838695 
 4008000    2.4220796   -2.5576411 
 4009000    2.1685064   -2.3656955 
 4010000    2.1681788   -2.3149891 
 4011000    2.3132536   -2.4454597 
 4012000    2.3022937   -2.4643196 
 4013000    2.5324594   -2.7011818 
 4014000    2.6871778   -2.8595729 
 4015000    2.6526212   -2.8089487 
 4016000    2.3673234   -2.5387529 
 4017000    2.4007856   -2.4316427 
 4018000      2.17482   -2.3633856 
 4019000    2.4514696   -2.6329871 
 4020000    2.4002423   -2.5238237 
 4021000    2.4052573   -2.5099559 
 4022000    2.4290107   -2.5746328 
 4023000    2.4934358    -2.591926 
 4024000    2.1764409   -2.2840541 
 4025000    2.3570353   -2.5221199 
 4026000    2.2742328   -2.4954295 
 4027000    2.3025368   -2.3818152 
 4028000    2.0409406   -2.1275448 
 4029000    2.2780322   -2.4674452 
 4030000    2.2656348   -2.3927538 
 4031000    2.2628986   -2.4210465 
 4032000    2.3057942   -2.3720419 
 4033000    2.6398757   -2.7372063 
 4034000    2.5315588   -2.7037422 
 4035000     2.358148   -2.4589208 
 4036000    2.2377341   -2.3253834 
 4037000    1.9199924     -2.02903 
 4038000    2.3001963   -2.3756261 
 4039000    2.3303138   -2.4439241 
 4040000    2.2581867   -2.5151895 
 4041000    2.5780668   -2.7716591 
 4042000    2.2729594   -2.5145402 
 4043000    2.2630916   -2.4120442 
 4044000    2.1680027   -2.3409272 
 4045000    2.1177668   -2.3650492 
 4046000    2.2005817   -2.2674651 
 4047000    2.2709994   -2.4140969 
 4048000    2.2237319   -2.4179957 
 4049000    2.1064475   -2.2319786 
 4050000    1.9599894    -2.099098 
 4051000    2.0979842   -2.2478381 
 4052000    2.0604816   -2.2210068 
 4053000     2.138445   -2.3311243 
 4054000    2.4507598   -2.5463637 
 4055000     2.246021   -2.3758215 
 4056000    2.5327539   -2.6345074 
 4057000    2.4179873   -2.4087664 
 4058000    2.1605781   -2.2321842 
 4059000    2.5497185   -2.6694492 
 4060000    2.4416282   -2.6167302 
 4061000    2.6686392   -2.7844402 
 4062000    2.4898353   -2.7326478 
 4063000    2.4459643   -2.6090102 
 4064000     2.368692   -2.4787183 
 4065000    2.3348658   -2.4689454 
 4066000    2.6253176   -2.7948943 
 4067000    2.5557633   -2.6197355 
 4068000    2.4757358   -2.6557655 
 4069000    2.1476776   -2.2781889 
 4070000    2.1636598   -2.3556119 
[...]
 4138000    2.0475367   -2.1101714 
 4139000    1.8885642   -2.0052248 
 4140000    2.4211278   -2.6268652 
 4141000    2.3600598   -2.4447211 
 4142000    2.0853169   -2.2259107 
 4143000    2.5777228   -2.7510536 
 4144000    2.6752857   -2.7680926 
 4145000    2.2097324   -2.3773296 
 4146000    2.2904114   -2.4099771 
 4147000    1.7311899    -1.843133 
 4148000     1.821262   -1.9824799 
 4149000    2.1771669   -2.3395206 
 4150000    2.2555335   -2.4233394 
 4151000    2.3474889   -2.4132271 
 4152000    2.1331948   -2.2920553 
 4153000    2.3319504   -2.4185844 
 4154000      2.52987    -2.708153 
 4155000    2.5786453   -2.6704098 
 4156000    2.6069787   -2.7462328 
 4157000    2.5677977   -2.6469413 
 4158000     1.929766   -1.9803328 
 4159000    1.9798813   -2.1021095 
 4160000    2.2942842   -2.3514689 
 4161000    2.1931813    -2.330638 
 4162000     2.359589   -2.4882243 
 4163000    2.0616328   -2.2648166 
 4164000     2.474769   -2.5334942 
 4165000    2.4662092   -2.6540938 
 4166000    2.2610163   -2.3299005 
 4167000    1.8221916   -1.8442204 
 4168000    2.1398142   -2.2874223 
 4169000    2.0650888   -2.2077482 
 4170000    2.3641087   -2.5193982 
 4171000    2.4097403   -2.5116654 
 4172000    2.3366254   -2.4421898 
 4173000    2.4908434   -2.6324709 
 4174000    2.1402635   -2.3070514 
 4175000    2.0420154   -2.1893227 
 4176000    2.4718101   -2.5688326 
 4177000    2.2645432   -2.4427862 
 4178000    2.2165356   -2.3232796 
 4179000    2.3326752   -2.4019436 
 4180000    2.4000417   -2.5291213 
 4181000    2.4669892   -2.6003395 
 4182000    2.5191133    -2.663893 
 4183000    2.3784236   -2.5715722 
 4184000    2.6030303     -2.80095 
 4185000    2.6971776   -2.8242875 
 4186000    2.6751943   -2.7680451 
 4187000    2.4724468   -2.6822027 
 4188000    2.5622264    -2.643181 
 4189000    2.4733261   -2.6214864 
 4190000    2.6334171   -2.7971508 
 4191000    2.4855871   -2.5929278 
 4192000    2.0379304   -2.2492883 
 4193000    2.0446069     -2.23767 
 4194000    2.0720296   -2.1862325 
 4195000    2.1149143   -2.2904145 
 4196000    2.1842834   -2.2871379 
 4197000    2.2393627   -2.3670701 
 4198000    2.3852586   -2.5022277 
 4199000    2.2416282   -2.3434603 
 4200000    2.2909907    -2.409247 
 4201000    2.3451215   -2.5384093 
 4202000    2.4153722   -2.5557026 
 4203000    2.5995231   -2.7071758 
 4204000    2.5508268   -2.6830271 
 4205000    2.3250675    -2.462087 
 4206000    2.2914401   -2.3189476 
 4207000    1.9668933   -2.0702202 
 4208000    1.9315604   -2.0074491 
 4209000    2.3060801   -2.3761373 
 4210000    2.1611992   -2.2317552 
 4211000    2.1973942   -2.3800055 
 4212000    2.3645097    -2.487087 
 4213000    2.3409069   -2.4395758 
 4214000    2.3429264   -2.5652722 
 4215000    2.3334209   -2.4820896 
 4216000    2.3635381   -2.4978262 
 4217000    2.2059058   -2.3541871 
 4218000    2.3443484   -2.4750647 
 4219000    2.2660374   -2.4478079 
 4220000    2.3779495   -2.5244077 
 4221000    2.3463206   -2.3738211 
 4222000    2.4105677   -2.5662182 
 4223000    2.4246237   -2.5198148 
 4224000    2.2327807   -2.4078234 
 4225000    2.2398113   -2.3067117 
 4226000    1.9014711   -1.9790187 
 4227000    1.8991496   -2.1199705 
 4228000      2.10175   -2.2359658 
 4229000    2.0804633   -2.1875232 
 4230000    2.2793131   -2.4167669 
 4231000    2.3990532    -2.539029 
 4232000     2.549627   -2.6723443 
 4233000    2.6028115   -2.7493536 
 4234000    2.6636266   -2.7970411 
 4235000    2.2795737   -2.3913606 
 4236000    2.1330071   -2.3280207 
 4237000    2.0994801   -2.1855505 
 4238000    2.0293144   -2.1937202 
 4239000    2.0865948   -2.1630129 
 4240000    1.9596516     -2.12102 
 4241000    2.2947854   -2.4159896 
 4242000    2.1860803    -2.311008 
 4243000    1.6286874   -1.7697517 
 4244000    2.2799955   -2.4343276 
 4245000    2.3835698   -2.5143826 
 4246000    2.3867279   -2.4462449 
 4247000    2.2527122   -2.3736959 
 4248000    2.1469815   -2.2629351 
 4249000    2.2783156   -2.3990689 
 4250000    2.0445849    -2.166104 
 4251000    2.3765207    -2.499064 
 4252000    2.4118038   -2.5342845 
 4253000    2.7036667   -2.8735181 
 4254000    2.4236825   -2.4887543 
 4255000    2.5925653    -2.710989 
 4256000    2.4166014    -2.570601 
 4257000    2.3431501   -2.4596727 
 4258000    2.3955366   -2.5434154 
 4259000    2.5605725    -2.631539 
 4260000    2.3851754   -2.4939618 
 4261000    2.1345216   -2.3247727 
 4262000    2.4177393   -2.5296072 
 4263000    2.1011314   -2.3572772 
 4264000    2.3034736   -2.4658902 
 4265000    2.4712387   -2.5116456 
 4266000    2.4528129     -2.56251 
 4267000     2.526239   -2.6681244 
 4268000    2.4876371   -2.6546596 
 4269000    2.4108901   -2.4565102 
 4270000    2.4421552   -2.5733577 
 4271000    2.4752793   -2.5862709 
 4272000    2.3529394   -2.4647208 
 4273000    2.4676328    -2.620613 
 4274000    2.6158862   -2.7973926 
 4275000    2.5042137   -2.6985263 
 4276000     2.489326   -2.5868043 
 4277000     2.374172   -2.5519161 
 4278000    2.5469041   -2.7379234 
 4279000    2.4255982    -2.559645 
 4280000     2.103585   -2.2218888 
 4281000    2.6235854   -2.7239895 
 4282000    2.5846069   -2.7110271 
 4283000    2.5309342   -2.5518422 
 4284000     2.339747   -2.4593486 
 4285000    2.3594042   -2.4041946 
 4286000    2.5909188   -2.6585351 
 4287000    2.5648928   -2.6810228 
 4288000    2.3737412   -2.5144449 
 4289000     2.439548   -2.5852038 
 4290000    2.4342295   -2.6051009 
 4291000    2.5045806   -2.6491113 
 4292000    2.6269329    -2.803753 
 4293000    2.4058588   -2.5764555 
 4294000    2.4271231   -2.5421829 
 4295000    2.3756295   -2.5941231 
 4296000    2.6373559   -2.8325972 
 4297000    2.6878522   -2.8007009 
 4298000    2.1219729   -2.2799923 
 4299000    2.1344998   -2.2131624 
 4300000    1.9423499   -2.0217881 
 4301000    2.4101255    -2.474922 
 4302000    2.5780217   -2.6229256 
 4303000    2.4838804   -2.6008626 
 4304000    2.6490149   -2.6841685 
 4305000    2.6503609   -2.7914384 
 4306000    2.4424886   -2.5837903 
 4307000    2.3887251   -2.5411183 
 4308000    2.2045533   -2.3385306 
 4309000    2.5304923   -2.7082181 
 4310000    2.8321609   -2.9524858 
 4311000    2.7468038   -2.8499818 
 4312000    2.3791306   -2.5627367 
 4313000    2.3314844   -2.4890726 
 4314000    2.5373233   -2.7030153 
 4315000    2.4348875   -2.5177699 
 4316000    2.2859376   -2.3132639 
 4317000    2.5765753   -2.7386988 
 4318000    2.3943929   -2.4591165 
 4319000    2.4173876   -2.5115552 
 4320000    2.2851963   -2.4284969 
 4321000    2.3080916   -2.5151643 
 4322000     2.016079   -2.1487514 
 4323000    2.2960586   -2.4114438 
 4324000     2.278021   -2.4321739 
 4325000     2.578622   -2.5681122 
 4326000    2.8406289   -2.9121877 
 4327000    2.7913996   -3.0097779 
 4328000    2.6144703   -2.7358862 
 4329000    2.5371151   -2.7152299 
 4330000    2.4368808    -2.627127 
 4331000     1.911342    -1.935001 
 4332000    1.9545359   -2.0599813 
 4333000    2.0289784   -2.1469213 
 4334000    1.9033123   -2.0783067 
 4335000    1.8659558   -1.9194071 
 4336000    2.1300924   -2.3149206 
 4337000     2.434933   -2.6309638 
 4338000    2.3449273    -2.538383 
 4339000    2.3271517   -2.5224614 
 4340000    2.4378624   -2.6568488 
 4341000    2.3492934   -2.4799876 
 4342000    2.2971182   -2.4485142 
 4343000    2.2089017    -2.333031 
 4344000    2.4787585   -2.6443173 
 4345000    2.3950721   -2.4752807 
 4346000    2.1619591   -2.3432088 
 4347000    2.1166658   -2.3834456 
 4348000    2.3539746   -2.4756816 
 4349000    2.2735743   -2.3533112 
 4350000    2.3575222   -2.5422358 
 4351000    2.3050675   -2.3557133 
 4352000     2.180585   -2.2934946 
 4353000    2.1495487   -2.2548509 
 4354000    2.1490404   -2.2503332 
 4355000    1.9323898   -2.0421806 
 4356000    2.0181639   -2.1358134 
 4357000    2.3072961   -2.4288345 
 4358000    2.3076448   -2.4778254 
 4359000    2.3254908   -2.4399058 
 4360000    2.2100602   -2.4219792 
 4361000    2.4658085   -2.6509597 
 4362000    2.3264427   -2.5316136 
 4363000    2.4413452   -2.6388836 
 4364000    2.0568118   -2.1664692 
 4365000    2.3464659   -2.5473919 
 4366000     2.266922   -2.4525263 
 4367000     2.221702   -2.2715285 
 4368000    1.8714232   -2.0402361 
 4369000     2.108827   -2.2152294 
 4370000    2.2351814   -2.3848866 
 4371000    2.1870785   -2.3278644 
 4372000    2.3942565   -2.5266097 
 4373000    2.3008374   -2.4298643 
 4374000    2.1409138   -2.3218957 
 4375000    2.2330208   -2.3641245 
 4376000    1.9284403   -2.0348586 
 4377000    1.9032765   -1.9560234 
 4378000    2.0082003   -2.1459752 
 4379000    1.9874283   -2.1656031 
 4380000    1.7580816   -1.9475099 
 4381000     2.047551   -2.2379034 
 4382000    1.9759884   -1.9580324 
 4383000    1.8062024   -1.9626908 
 4384000    2.0739676   -2.1543348 
 4385000    2.1591039   -2.2592829 
 4386000    2.2253589   -2.3288141 
 4387000    2.2438321   -2.4024185 
 4388000    2.2101599   -2.3713888 
 4389000    2.2174403   -2.3707691 
 4390000    2.3851656   -2.5601292 
 4391000    2.3416225   -2.5486444 
 4392000    2.5984422   -2.7659668 
 4393000    2.3129972   -2.3300986 
 4394000    2.3114126    -2.347143 
 4395000    2.6901529   -2.7619171 
 4396000    2.3704553   -2.5373478 
 4397000     2.220938   -2.3755471 
 4398000    2.4181943   -2.5823537 
 4399000      2.40218    -2.544274 
 4400000    2.1596595   -2.2590477 
 4401000    2.5425657   -2.7254842 
 4402000    2.5715545   -2.7087975 
 4403000    2.4448612   -2.6036654 
 4404000    2.3454814   -2.4303201 
 4405000    2.1485972   -2.3214016 
 4406000    2.2144272   -2.2823719 
 4407000    1.9562582   -2.1356641 
 4408000    1.6020469    -1.766314 
 4409000    2.4414333   -2.5068353 
 4410000    1.9820904   -2.1245374 
 4411000    1.9140638   -2.0813591 
 4412000    2.2816159   -2.4316353 
 4413000    2.3086387   -2.4672171 
 4414000     2.508577   -2.6394083 
 4415000     2.252709   -2.4368022 
 4416000    2.1832826   -2.3004151 
 4417000    1.9275324   -2.0272169 
 4418000    2.0019796   -2.1491583 
 4419000    2.0717152   -2.2285536 
 4420000    2.1109914   -2.1949976 
 4421000    2.1273595   -2.3088411 
 4422000    2.2390406   -2.4158518 
 4423000    2.5950442    -2.717137 
 4424000    2.4504988   -2.6283085 
 4425000    2.4237362   -2.5777235 
 4426000    2.3815903   -2.5103323 
 4427000    2.4952397   -2.5387451 
 4428000    2.6902719   -2.8580822 
 4429000    2.2834603   -2.4396268 
 4430000    2.3861528   -2.6424032 
 4431000    2.0856072   -2.1719343 
 4432000    2.0863283    -2.212679 
 4433000    1.9701702   -2.1001945 
 4434000    1.9855032   -2.1762492 
 4435000    2.4285384   -2.4961472 
 4436000    2.4788274   -2.5708916 
 4437000    2.2090877   -2.3141817 
 4438000     1.816383    -1.911457 
 4439000    1.8500202   -1.9229166 
 4440000    2.2959478   -2.4141158 
 4441000    2.0620826   -2.1980734 
 4442000    2.3287746   -2.4556288 
 4443000    2.3049072   -2.5348416 
 4444000    2.4993935   -2.6327365 
 4445000      2.37643   -2.5379325 
 4446000    2.5536773   -2.6457874 
 4447000    2.3325169   -2.4763517 
 4448000    2.5089078   -2.6171864 
 4449000    2.5192392    -2.677319 
 4450000     2.215853   -2.4763628 
 4451000    2.1532836   -2.2616506 
 4452000    2.1122934   -2.1545181 
 4453000    1.6638468   -1.8139782 
 4454000    2.3119368   -2.4853456 
 4455000    2.3518388   -2.5493578 
 4456000    2.3717761   -2.5210078 
 4457000    1.9826975   -2.1900199 
 4458000    2.1075806   -2.2231071 
 4459000    2.1224458   -2.1831135 
 4460000    2.3804187   -2.6072017 
 4461000    2.4249144   -2.5444253 
 4462000     2.493603   -2.5615665 
 4463000    2.5305327   -2.7279403 
 4464000    2.6572741   -2.6945748 
 4465000    2.7059238   -2.9592879 
 4466000    2.9420345   -3.0776392 
 4467000    3.0060818   -3.1489077 
 4468000    2.7634444   -3.0260929 
 4469000    2.4868807   -2.5280739 
 4470000    2.4590393   -2.6689098 
 4471000    2.0503878   -2.1647994 
 4472000    2.4572772   -2.5820348 
 4473000    2.3711014    -2.517473 
 4474000    2.3784238   -2.5045765 
 4475000     2.364191   -2.3977617 
 4476000    2.1552899   -2.3158047 
 4477000    2.0248875   -2.1510208 
 4478000    1.8677428     -2.01503 
 4479000    1.7943026   -1.9687161 
 4480000    1.6922915   -1.8343413 
 4481000    1.6945071   -1.7657045 
 4482000    1.7955157   -1.8817776 
 4483000    2.0776475   -2.2906821 
 4484000    2.3889348   -2.5230303 
 4485000    2.1615711   -2.2828814 
 4486000    2.3095569   -2.4413737 
 4487000    2.2046266   -2.3909198 
 4488000    2.4762116   -2.6162202 
 4489000    2.3521073   -2.4953176 
 4490000    2.0191824   -2.2363573 
 4491000    2.0524636   -2.1789646 
 4492000    1.7991822    -1.933998 
 4493000    1.7835843   -1.9533153 
 4494000    1.9754435   -2.0745701 
 4495000    2.0384736   -2.1615105 
 4496000    2.0259534   -2.1535468 
 4497000    2.2505431   -2.2908182 
 4498000    2.5677501   -2.6842883 
 4499000    2.1709878   -2.2806025 
 4500000    2.2868536   -2.4347818 
 4501000    2.2989728   -2.4075438 
 4502000     1.976828   -2.0655539 
 4503000    2.0302725   -2.1038257 
 4504000    2.3832803   -2.5290042 
 4505000    2.4910363   -2.6358569 
 4506000    2.4604388   -2.6502593 
 4507000    2.3221003   -2.3661002 
 4508000    2.6035735   -2.7671215 
 4509000    2.4757955   -2.5743884 
 4510000    2.2747452   -2.4021551 
 4511000     2.200756   -2.2847629 
 4512000    2.2261487   -2.3878168 
 4513000    2.0579015   -2.2307915 
 4514000    2.0539021   -2.1655129 
 4515000    1.8668186   -2.0031275 
 4516000    1.9376565   -2.1013743 
 4517000    2.4390084   -2.6239083 
 4518000    2.1726146   -2.3231527 
 4519000    2.3174441   -2.4149264 
 4520000    2.2804183   -2.4933111 
 4521000     2.681528   -2.8896148 
 4522000    2.5345284   -2.6342213 
 4523000    2.3980905    -2.564972 
 4524000     2.711465   -2.8664919 
 4525000    2.3853262   -2.5266539 
 4526000     2.337124   -2.4363418 
 4527000    2.3699872   -2.5214334 
 4528000    2.2872974   -2.4617638 
 4529000    2.1999933   -2.2656439 
 4530000    1.9443559   -2.1250996 
 4531000     2.224529   -2.3890371 
 4532000    2.2800325   -2.4305421 
 4533000    2.0352088   -2.1237897 
 4534000    2.0984136   -2.3386352 
 4535000    1.9606765   -2.0659517 
 4536000      1.97659   -2.1683358 
 4537000    1.7446351   -1.9527915 
 4538000    2.0875264   -2.2262709 
 4539000    2.2759055   -2.4513697 
 4540000    2.0484127   -2.2121648 
 4541000    2.2483539   -2.3689485 
 4542000    2.0527722   -2.2341124 
 4543000    2.0392799   -2.1181595 
 4544000    2.3596129   -2.4825954 
 4545000    2.2292556   -2.4074162 
 4546000    2.1765382   -2.2837951 
 4547000    2.2887424   -2.4670294 
 4548000    2.5008046   -2.6293847 
 4549000    2.4817519   -2.6796965 
 4550000    2.5243883    -2.703185 
 4551000    2.6138697   -2.8156159 
 4552000    2.3399327   -2.4210722 
 4553000    2.4320021    -2.457542 
 4554000    2.4384172   -2.5513233 
 4555000    2.7634023   -2.8828038 
 4556000    2.6941015    -2.861156 
 4557000    2.2848094   -2.4071744 
 4558000    2.5262526     -2.62804 
 4559000     2.553593     -2.73288 
 4560000    2.0956516    -2.256321 
 4561000    2.1692799   -2.2941034 
 4562000     2.382601   -2.5095667 
 4563000    2.6518601   -2.7264913 
 4564000    2.6369433   -2.7034027 
 4565000    2.1401249   -2.2865788 
 4566000    2.4217138   -2.5857432 
 4567000    2.2652393   -2.5005781 
 4568000      2.11667    -2.233434 
 4569000    2.2550738   -2.4492487 
 4570000    2.0748946    -2.250624 
 4571000    2.3311322    -2.494211 
 4572000    2.1018875   -2.1841093 
 4573000    1.9046627   -2.1360048 
 4574000    1.9352979   -2.0461186 
 4575000     2.276091   -2.3732562 
 4576000    2.2094331    -2.220092 
 4577000    1.7396493   -1.8290191 
 4578000    2.2343947   -2.4090349 
 4579000    2.3351448   -2.4353957 
 4580000     2.515342   -2.7221543 
 4581000    2.2048792   -2.4058181 
 4582000    2.2210762   -2.3818018 
 4583000    2.3483264   -2.4094005 
 4584000     2.060428   -2.1484615 
 4585000    2.2894915   -2.4353122 
 4586000    2.3470801   -2.4524313 
 4587000    2.2066173   -2.3839827 
 4588000    2.2315535   -2.3731812 
 4589000    2.0880853    -2.244003 
 4590000    1.9922253   -2.1147699 
 4591000    2.0856752   -2.2020725 
 4592000    2.0629857   -2.2091035 
 4593000    2.1867565   -2.3305505 
 4594000     2.208367   -2.3188427 
 4595000    1.9048861   -2.0470597 
 4596000    2.1271462   -2.2645452 
 4597000     1.960352   -2.0887439 
 4598000    2.0830081   -2.2815418 
 4599000    2.1742624   -2.2842702 
 4600000    2.3513661   -2.5000349 
 4601000    2.2211038   -2.3256451 
 4602000    2.3766338   -2.4492537 
 4603000    2.4384013   -2.5341864 
 4604000    2.3142311   -2.5317962 
 4605000    2.1371284    -2.243583 
 4606000    2.5831561   -2.7290683 
 4607000    2.6140098   -2.7765398 
 4608000    2.4339191   -2.5967787 
 4609000     2.042601   -2.1457809 
 4610000     2.306603   -2.3848747 
 4611000    2.0765295   -2.1986883 
 4612000     2.113755   -2.2254956 
 4613000    2.1072123   -2.3059237 
 4614000    1.9608586   -2.0392034 
 4615000    1.7706289   -1.9203993 
 4616000    2.0446453   -2.0596607 
 4617000    1.8055749   -1.9791371 
 4618000    2.2583241   -2.3657005 
 4619000    2.2519749   -2.3258774 
 4620000    2.4423831   -2.6617565 
 4621000    2.5532693   -2.7246263 
 4622000    2.5085696   -2.6751271 
 4623000    2.5689245   -2.6543977 
 4624000    2.5124629    -2.632499 
 4625000     2.335007   -2.5080605 
 4626000    2.4439185   -2.6113854 
 4627000    2.4542686   -2.5935878 
 4628000    2.6027648   -2.6784044 
 4629000    2.4783995   -2.5908661 
 4630000    2.6203311   -2.8212897 
 4631000    2.6534278   -2.7642207 
 4632000    2.7821649    -2.990155 
 4633000    2.6394589   -2.8499005 
 4634000    2.3421533   -2.5073909 
 4635000    2.5359839   -2.6732543 
 4636000     2.199035   -2.2468086 
 4637000     2.391467   -2.5302763 
 4638000    2.2854725   -2.4141005 
 4639000    2.3124985   -2.4395549 
 4640000    2.2729355   -2.4266271 
 4641000    2.1981062   -2.2775254 
 4642000    2.2870329   -2.3341627 
 4643000      2.43923    -2.549836 
 4644000    2.7062589   -2.7655708 
 4645000    2.2437532   -2.3591879 
 4646000    2.4444083   -2.6290347 
 4647000    2.5408072   -2.6725325 
 4648000    2.5127457   -2.6813138 
 4649000    2.1259686   -2.2289251 
 4650000    2.0044233   -2.1715056 
 4651000    2.0619833   -2.2216883 
 4652000    2.3457957   -2.5437898 
 4653000    2.2437646   -2.3531139 
 4654000    2.1232113   -2.2558492 
 4655000    2.2691163   -2.3913707 
 4656000    2.1183371   -2.2729638 
 4657000    2.3283453   -2.5128658 
 4658000    2.4473397   -2.6130777 
 4659000    2.4212083   -2.5654418 
 4660000     2.868181   -3.0264928 
 4661000    2.4497068   -2.5778197 
 4662000    2.3398605   -2.5717845 
 4663000    2.3827642   -2.5518014 
 4664000    2.0286976   -2.2331062 
 4665000    1.8804902   -1.9292427 
 4666000      1.97899   -2.0471837 
 4667000    2.0893123   -2.2356419 
 4668000    2.3765028   -2.5120922 
 4669000    2.4655673   -2.6582892 
 4670000    2.3192208   -2.4583897 
 4671000    2.0732698   -2.2549505 
 4672000     2.031461   -2.2225549 
 4673000    2.2922154   -2.4822801 
 4674000     1.740591   -1.9138919 
 4675000    1.8590614   -1.9661502 
 4676000    1.7955763    -1.972139 
 4677000    1.7840946   -1.9492398 
 4678000    2.3488765   -2.4598242 
 4679000    2.0372053   -2.1277573 
 4680000    1.9760425   -2.1046127 
 4681000    1.9204707   -2.0546418 
 4682000     2.170009   -2.2819399 
 4683000     2.009375   -2.1625555 
 4684000    2.1534315   -2.3460849 
 4685000    2.2106885   -2.3252865 
 4686000    1.8054428   -2.0157895 
 4687000    1.8763366   -2.0006517 
 4688000    2.1702721   -2.2564528 
 4689000    2.2021894   -2.4034769 
 4690000    2.3141501   -2.4229828 
 4691000    2.1406946   -2.2264871 
 4692000    2.2557375   -2.5285747 
 4693000    2.40