ITEM: TIMESTEP
4500000
ITEM: NUMBER OF ATOMS
896
ITEM: BOX BOUNDS pp pp ff
-1.7153631884999999e+01 1.8003017117999999e+01
-1.7855467918999999e+01 1.7553981017000002e+01
-3.4618715923000003e+01 3.4618715923000003e+01
ITEM: ATOMS q 
0.0102639 
0.0103377 
0.0101498 
0.00942953 
0.00535579 
0.00533063 
0.00819199 
0.00590502 
0.00911054 
0.00184723 
0.00384314 
0.00395368 
0.00885453 
0.00889567 
0.01415 
0.00600919 
0.00583249 
0.00741191 
0.00228976 
-0.00649792 
0.00299664 
0.00372477 
0.00334442 
0.00294643 
-0.000534065 
-0.000527354 
-0.000538066 
-0.000466772 
-0.000441231 
-0.000432217 
-0.000437196 
-0.000371712 
-0.000452393 
-0.000344264 
-0.000347836 
-0.000338994 
-0.000438687 
-0.00056026 
-0.000596169 
-0.000254252 
-0.00029017 
-0.000234817 
-0.000309692 
-0.000201603 
-0.000110873 
0.0129417 
0.00901071 
0.00544773 
0.00342725 
0.0136332 
0.00658208 
0.0037816 
0.00527624 
0.0109822 
0.00540249 
0.00434947 
0.00583483 
0.00842221 
0.00426846 
0.00422129 
0.00617312 
0.0052369 
0.00733484 
0.00695611 
0.00513834 
0.00375618 
0.00472188 
0.00575117 
0.00147248 
0.00707439 
0.00321051 
0.000279169 
-0.000267993 
0.0116771 
0.0100116 
0.00981144 
0.00796078 
-0.000504948 
-0.000380404 
-0.000361795 
-0.000357313 
-0.000473532 
-0.000368593 
-0.000349772 
-0.000333262 
-0.000479572 
-0.000375963 
-0.000358208 
-0.000417768 
-0.000462381 
-0.000395724 
-0.000457147 
-0.000500287 
-0.00032298 
-0.000308375 
-0.000229269 
-0.00028046 
-0.000271626 
-0.000156775 
-0.000370695 
-0.000251888 
-0.000196434 
-0.000496974 
-0.000438212 
-0.000384555 
0.010766 
0.0242847 
0.0156962 
0.013729 
-0.0167516 
0.00030478 
0.00902681 
0.00596679 
0.00311723 
-0.000301607 
0.00417172 
0.00773373 
0.0106327 
0.00493472 
0.00216271 
0.00456236 
0.00777374 
0.00491794 
0.00311111 
0.00537784 
0.00686625 
0.00478658 
0.00540756 
0.00474088 
0.00474563 
0.0137126 
0.00539539 
-0.000456364 
-6.98418e-05 
-0.000178686 
-0.000522182 
-0.00065915 
-0.000513397 
-0.000474045 
-0.000231285 
-0.000421066 
-0.000462503 
-0.000420768 
-0.000213231 
-0.000288542 
-0.000396789 
-0.000435988 
-0.000396188 
-0.000399547 
-0.00039373 
-0.000393989 
-0.000428831 
-0.000408588 
-0.000447475 
-0.000544288 
-0.000471564 
-0.000446562 
-0.000504939 
-0.000476737 
-0.0100487 
0.0124888 
0.00279595 
-0.000511949 
-0.000236833 
-0.000555104 
0.00869938 
0.00443655 
-0.000127737 
-0.000398353 
0.00860581 
-0.000499299 
-0.000447464 
-0.000311803 
-0.00045434 
-0.000439363 
-0.00053641 
0.010375 
-0.000444784 
0.00803359 
0.0105643 
0.00704122 
0.011753 
-0.000440675 
0.00916897 
-0.000286925 
-0.000573349 
-0.000806718 
-0.000261138 
0.00160407 
-0.00011286 
-0.000351535 
0.00273815 
-0.00049246 
0.00885142 
0.00754653 
-0.000756158 
0.00936833 
-0.000427851 
0.00353537 
-0.000292644 
-0.000528463 
-0.000148303 
0.00305757 
-0.000490127 
-0.00210122 
-0.000444734 
0.00694957 
-0.000467542 
0.0097277 
-0.000393037 
0.00688757 
-0.00251241 
-0.000116294 
0.00847655 
0.00936075 
0.00779116 
-0.000419968 
-0.000518778 
0.00981678 
-0.000391308 
-0.000106561 
0.0106232 
-0.000244265 
-0.000355287 
-0.000463164 
0.00651987 
-0.000355782 
0.00538737 
-0.00547726 
-0.000494285 
-0.000491127 
0.002846 
0.0041103 
0.00463105 
0.011084 
0.00714065 
0.00765929 
0.0134048 
0.0102248 
0.00602804 
0.00347071 
0.000388903 
0.0029073 
0.00261079 
0.00584537 
0.00453734 
0.00527559 
0.00721217 
0.00649369 
0.00354584 
0.00421895 
0.00544615 
-0.00407821 
0.00468703 
0.00537832 
-0.000391352 
-0.00037166 
-0.000323909 
-0.000302323 
-0.000525789 
-0.000445842 
-0.000382697 
-0.000396549 
-0.00045382 
-0.000499201 
-0.000425567 
-0.00038142 
-0.000263716 
-0.000275467 
-0.000228681 
-0.000151641 
-0.000353684 
-0.00030427 
-0.000224225 
-0.000252305 
-0.000367179 
-0.000361847 
-0.000327394 
-0.000323053 
0.0046867 
0.00316691 
-0.00266018 
0.00361254 
-0.00539006 
-0.0090459 
0.0081189 
0.00182041 
0.00522864 
0.00902318 
0.00925475 
0.00530227 
0.00042988 
0.00678323 
0.00591555 
0.0078164 
-0.00382626 
-0.00313283 
0.0064675 
0.00481951 
0.00493698 
0.00803051 
0.00693448 
0.00379477 
0.00298439 
0.00461393 
0.00375512 
0.00716664 
0.00313616 
-0.000377487 
0.00335541 
0.00302288 
-0.000277486 
-0.000309479 
-0.000287853 
-0.000194946 
-0.000243756 
-0.000131899 
-9.11139e-05 
-0.000139357 
-0.00043358 
-0.00026004 
-0.000223171 
-0.000340372 
-0.000491602 
-0.000449071 
-0.000375306 
-0.000347204 
-0.000276435 
-0.00036315 
-0.000349092 
-0.000300804 
-0.000251329 
-0.000276043 
-0.000291013 
-0.000241281 
-0.000333299 
-0.000324749 
-0.000277173 
-0.000259789 
-0.000325577 
-0.000333834 
-0.00030081 
-0.000300231 
-0.000321744 
0.00761122 
0.00145695 
-0.00254659 
-0.00165966 
0.00212908 
0.00307856 
3.97122e-05 
-0.000118769 
0.00451661 
0.00231949 
0.00461422 
0.0100205 
0.00705362 
0.00516969 
0.00702348 
0.0157258 
0.000533362 
0.00919923 
0.00734803 
0.00786971 
-0.000185254 
-0.000246584 
-0.000247468 
-0.000281201 
-0.000199422 
-0.000189525 
-0.000277358 
-0.000353353 
-0.000268399 
-0.000230415 
-0.000288085 
-0.000296441 
-0.000300841 
-0.000224555 
-0.000104813 
-0.000191989 
-0.000395152 
-0.000326252 
-0.000149361 
-0.000213016 
-0.000334742 
-0.00035918 
-0.000195453 
-0.000233407 
-0.000297658 
-0.000288187 
0.00865143 
0.000268051 
-0.000234903 
0.000581177 
0.0068026 
0.00442466 
-0.000214298 
0.00291203 
0.00198288 
0.00526761 
-0.000234864 
-0.000303492 
0.00194619 
-0.000308155 
0.0162187 
-0.000264667 
0.00441572 
-0.000207225 
-0.000289655 
-0.000262937 
0.00197255 
-0.000526404 
-0.000261907 
-0.000327007 
-0.000317667 
-0.000287277 
0.0142204 
0.00196979 
0.00369033 
-0.000332403 
0.000629832 
-0.000294446 
-0.000219928 
-0.000286402 
-0.000154715 
0.00425914 
0.0107429 
-0.000313864 
0.00183554 
0.00632035 
-0.000294192 
0.00343198 
-0.000270427 
-0.000372093 
0.00635288 
-0.00032149 
-0.000143514 
0.00656888 
0.00597181 
-0.000317034 
-1.03413e-05 
-0.000142451 
-0.00014738 
0.00373653 
-0.000197638 
-0.000340847 
0.00848592 
-0.000284914 
0.00573587 
0.00411758 
0.0054695 
0.00481244 
0.00650838 
0.00214389 
0.00394376 
0.00488726 
0.0149922 
0.00504158 
0.00475889 
0.00162687 
0.00517335 
-0.00137569 
0.00586508 
0.00996519 
0.00640862 
0.00504513 
-0.00110801 
0.00091154 
0.000770549 
-0.0067095 
0.00198419 
-0.0118297 
-0.0220773 
0.000105429 
0.00239578 
0.0059044 
-0.000407009 
-0.00037399 
-0.000433894 
-0.00035246 
-0.000368507 
-0.000291547 
-0.000261153 
-9.59354e-05 
-0.000396328 
-0.000261874 
-0.000100106 
-9.29396e-05 
-0.000268804 
-0.000232515 
-0.000339379 
-0.000439156 
-0.000442673 
1.23394e-05 
-0.000160978 
-0.000197047 
-4.04431e-06 
0.000147966 
2.09796e-05 
-0.000206806 
-0.000193633 
0.0148378 
0.00196502 
0.0124067 
0.0070225 
0.00382091 
0.00769169 
0.0157114 
0.0110309 
0.0115487 
0.0109859 
0.0105761 
0.0101598 
0.00763641 
0.00946529 
0.00414974 
0.00741038 
0.00716654 
0.00523309 
0.00465681 
0.00286113 
0.00863179 
0.00750468 
0.00290533 
0.00154063 
0.0114768 
0.00929825 
0.00907388 
0.0211386 
-0.000469847 
-0.00029771 
-0.000634926 
-0.000395192 
-0.000375184 
-0.000438701 
-0.00070289 
-0.000553678 
-0.000511501 
-0.000529716 
-0.000633279 
-0.000520448 
-0.000542716 
-0.000575964 
-0.000319578 
-0.000381337 
-0.000350575 
-0.000345659 
-0.000447652 
-0.000366666 
-0.000306534 
-0.000614879 
-0.000526385 
-0.00050849 
0.00517571 
0.00917588 
0.0103771 
0.00642182 
0.00345057 
0.00518796 
0.00429296 
0.00356735 
-0.00127752 
-0.00204704 
-0.000997773 
0.00149443 
-0.000383514 
0.000809426 
0.00674957 
0.00698134 
0.00854698 
0.0071002 
0.0104652 
0.00816332 
0.0111334 
0.0122002 
0.00855779 
0.0130736 
0.0116452 
0.0124664 
0.0124746 
0.0133223 
0.00536536 
0.0118746 
0.0098069 
-0.000381399 
-0.000121969 
-9.74657e-05 
-0.000423236 
-0.000479423 
-0.000461345 
-0.000491484 
-0.000248807 
-0.000372613 
-0.000456186 
-0.000519345 
-0.000203089 
-0.000240392 
-0.000421204 
-0.000528976 
-0.000311474 
-0.000467996 
-0.000519278 
-0.000510354 
-0.000511347 
-0.000518743 
-0.00061808 
-0.000591889 
-0.000588947 
-0.000633947 
-0.000659071 
-0.000674643 
-0.000672753 
-0.000631747 
-0.000664992 
-0.000621672 
-0.000411931 
-0.000503591 
0.00262804 
-0.00031609 
0.00736361 
0.00666124 
-0.000350932 
0.0065211 
0.00577244 
0.00801647 
-0.000304536 
-0.000371947 
0.00906315 
-0.000377423 
0.00611097 
0.00392456 
0.000785878 
-0.000437609 
-0.00061978 
0.000288909 
-0.000379187 
-0.000378481 
0.00608942 
0.00775148 
-0.000332062 
0.0049351 
-0.000478222 
-0.000411259 
-0.000363377 
-0.000432935 
0.0105139 
-0.000359542 
0.0128701 
-0.00035396 
0.00414423 
0.00946349 
-0.000369403 
-0.000536836 
0.00276973 
-0.00068202 
-0.000526419 
0.00882178 
-0.000345876 
0.0235991 
0.0116559 
0.0100088 
-0.00054031 
-0.00032556 
-0.000385225 
-0.000580716 
-0.0024523 
-0.000344142 
0.0056254 
0.0101196 
-0.000468143 
-0.000431558 
0.00623896 
0.00629471 
0.00318397 
0.00578384 
0.00467839 
-0.000382642 
0.00322166 
-0.000510074 
0.00694364 
0.00884706 
0.00886778 
0.0103626 
0.00906618 
0.0057076 
0.0113789 
0.00895532 
0.0078547 
0.00942962 
0.00800895 
0.00276 
0.00197413 
0.00408241 
0.00257687 
0.00246191 
0.00174187 
0.00352877 
0.00579256 
0.00312998 
-0.00322307 
-0.00345468 
0.000873401 
0.00297467 
0.00546019 
0.00704932 
0.00771775 
0.00504153 
-0.000502869 
-0.000470056 
-0.000390557 
-0.000340126 
-0.000543013 
-0.000491758 
-0.000383332 
-0.000287888 
-0.000548927 
-0.000504073 
-0.000347126 
-0.000303668 
-0.000473523 
-0.00036855 
-0.000297465 
-0.000321891 
-0.000325181 
-0.000372653 
-0.000247283 
-0.000303434 
-0.000374331 
-0.000424668 
-0.000245289 
-0.000227659 
-0.000329897 
-0.000361986 
-0.000303639 
-0.000332837 
0.00580576 
0.00418471 
0.00418801 
0.00720433 
0.00386948 
0.00742495 
0.00420819 
0.00942725 
0.00413495 
0.00405118 
0.00200141 
0.0044657 
0.00780013 
0.00374704 
0.00505344 
0.00453309 
0.00423154 
0.00673903 
0.00371393 
0.00410922 
0.000836155 
0.00424736 
0.00475095 
0.00404701 
0.00492651 
0.00318772 
0.00574552 
0.00456443 
-0.000456324 
-0.000335388 
-0.000392352 
-0.000407801 
-0.000393419 
-0.000391983 
-0.00038558 
-0.000390175 
-0.000381905 
-0.000345801 
-0.000396403 
-0.000353554 
-0.000314 
-0.00031782 
-0.000315995 
-0.000352179 
-0.000351193 
-0.000341256 
-0.00033947 
-0.000324371 
-0.000341718 
-0.000347094 
-0.000328955 
-0.000327184 
-0.000312162 
-0.000309091 
-0.000305406 
-0.000293013 
0.00280026 
0.00156926 
0.00376566 
0.0106849 
0.00785406 
0.00923881 
0.00719152 
0.00902753 
0.00615802 
0.00712716 
0.00553143 
0.00413224 
0.00659179 
0.00809742 
0.00191811 
0.00526354 
0.00372055 
0.000485346 
0.00809381 
0.00621665 
0.00687732 
0.0130002 
0.0187016 
0.00775357 
0.0081826 
-0.000368867 
-0.000289703 
-0.000318891 
-0.000348052 
-0.00047933 
-0.000446098 
-0.000394769 
-0.000437504 
-0.000422151 
-0.000471184 
-0.000468776 
-0.000462872 
-0.000383929 
-0.0004071 
-0.00029618 
-0.000299853 
-0.00016122 
-0.000217194 
-0.000385926 
-0.000255742 
-0.000156012 
-0.000203159 
-0.000477004 
-0.000418999 
-0.000185836 
-0.000230454 
-0.000411789 
-0.000209687 
-0.0003034 
-0.000148704 
0.000927344 
0.000449148 
-0.000232903 
-0.000317724 
0.00351918 
-0.000244894 
0.00937417 
0.0140777 
-0.000285413 
-0.000260433 
0.00328913 
0.00407883 
-0.000244406 
-0.000327438 
-0.000336518 
-0.000866245 
-0.00040302 
0.00423886 
-0.000149304 
0.006221 
-0.000340018 
-0.000336111 
-0.000217571 
-0.000346472 
0.00356972 
0.00428391 
0.00405041 
-0.000281623 
-0.000116445 
-0.000328007 
-0.000163552 
-0.000406061 
0.00488458 
-0.000244421 
0.003127 
0.00877754 
-0.00038877 
-0.000218567 
0.00453408 
-0.000181068 
-0.00026818 
0.00616578 
0.00660413 
-0.000222481 
-0.000313882 
-0.000303899 
0.00143972 
0.00821504 
0.00229722 
0.00329316 
ITEM: TIMESTEP
4502000
ITEM: NUMBER OF ATOMS
896
ITEM: BOX BOUNDS pp pp ff
-1.7153631884999999e+01 1.8003017117999999e+01
-1.7855467918999999e+01 1.7553981017000002e+01
-3.4618715923000003e+01 3.4618715923000003e+01
ITEM: ATOMS q 
-0.000538823 
-0.000292795 
-0.000258897 
-0.000183618 
0.00192706 
0.00848132 
-0.000301862 
-0.000365715 
0.00815291 
-0.00026416 
-0.000695889 
-0.000512445 
-0.000200064 
-0.000204305 
-0.000413233 
0.012697 
0.00513997 
-0.000221422 
-0.000133336 
0.00969628 
0.00671649 
-0.000201548 
0.0061288 
-0.00450686 
0.00547332 
0.0146666 
0.00878736 
0.00566447 
0.00411176 
0.00672546 
0.00521738 
0.0056929 
0.00337101 
0.00460756 
0.00387566 
0.00838752 
0.0020741 
0.00217827 
0.00210862 
0.00528667 
0.00567836 
0.00230918 
0.00492182 
0.00153821 
0.00388288 
0.00801991 
0.0125581 
-0.000371315 
-0.000348946 
-0.000301608 
-0.000304917 
-0.000321528 
-0.0003 
-0.00031592 
-0.000296888 
-0.000370435 
-0.000276063 
-0.000294843 
-0.000347798 
-0.000224671 
-0.000203687 
-0.000200807 
-0.000297577 
-0.00024484 
-0.000234537 
-0.00044863 
-0.000395848 
-0.000415648 
0.00763225 
0.00845205 
0.00743431 
0.00726784 
0.00673721 
0.00430338 
0.00651805 
0.00846706 
0.00952975 
0.00483651 
0.00471453 
0.00562336 
0.00353659 
0.00616505 
0.00531501 
0.00299911 
0.00979643 
0.00984215 
0.0143505 
0.0146643 
0.00990146 
0.00973636 
0.010679 
0.00686571 
0.00402446 
0.00499309 
0.000225343 
-0.00754453 
0.00210397 
0.0038644 
0.00217181 
0.0109085 
-0.000429895 
-0.000348037 
-0.000389067 
-0.000466812 
-0.000392661 
-0.000362056 
-0.000429836 
-0.000399367 
-0.000351528 
-0.00031461 
-0.000323703 
-0.000259044 
-0.000348666 
-0.000269745 
-0.000249677 
-0.000238213 
-0.000535856 
-0.000561907 
-0.000555175 
-0.000363259 
-0.000486117 
-0.000439721 
-0.00016841 
-0.000197167 
-0.000144921 
-0.000289262 
-0.000207493 
-0.000215329 
-0.00188658 
0.00275588 
0.00280446 
0.00590812 
0.00545915 
0.00566007 
0.00378459 
0.00350485 
0.00534214 
0.0111855 
0.00493791 
0.00545322 
0.00688421 
0.0075947 
0.00480494 
0.00465731 
0.0112881 
0.00682539 
0.00821617 
0.0101271 
0.00882696 
0.00633868 
0.00670438 
0.00542073 
0.00109512 
0.0133301 
0.00610525 
0.00506431 
-0.000197952 
-0.000311098 
-0.000492379 
-0.00023551 
-0.000242652 
-0.000250755 
-0.000317065 
-0.000308908 
-0.000276595 
-0.000332148 
-0.000360193 
-0.000429626 
-0.00035438 
-0.000343425 
-0.000322091 
-0.000374529 
-0.000330767 
-0.000443982 
-0.000490456 
-0.000384718 
-0.00043156 
-0.000428633 
-0.000366573 
-0.000254003 
-0.000313562 
-0.000297962 
-0.000257695 
-0.000305636 
-0.000255238 
-0.00020554 
0.00419369 
-0.00369311 
0.00587178 
-0.000119415 
0.000917638 
0.00529998 
-0.000717102 
-0.003392 
-0.000318175 
-0.000419044 
-0.000191161 
0.00927643 
0.00545807 
-0.000418565 
-0.00026996 
0.00323326 
-0.000204801 
-0.000215448 
-0.000246958 
-0.000403535 
-0.000377157 
-0.000298325 
-0.000169878 
0.00451159 
-0.000251411 
0.0094813 
0.00534867 
0.00416433 
0.00465525 
-0.000232903 
0.00623663 
0.0117224 
-0.000184659 
0.000308784 
-9.27043e-05 
0.00786871 
-0.000263519 
-0.000318363 
0.000673594 
-0.000305772 
0.0112931 
0.00250945 
0.00418675 
0.00418255 
-0.000391426 
0.010119 
0.0124893 
0.0104298 
0.00566427 
-0.000372606 
-0.00119482 
0.00794117 
0.010103 
-0.000365038 
0.00560515 
-0.000203598 
0.0174148 
0.0179509 
0.00669662 
0.00766082 
0.00407465 
0.00325958 
0.00421653 
0.00374323 
0.00566726 
0.00857493 
0.0151543 
0.012666 
0.00875556 
0.00511691 
0.00866106 
0.0093531 
0.00893524 
0.00461523 
0.00857533 
0.0124008 
0.0123182 
0.00464782 
0.00790871 
0.0135695 
-0.00048141 
-0.000534685 
-0.000483248 
-0.000440481 
-0.000333431 
-0.000382129 
-0.000386862 
-0.000389078 
-0.00030018 
-0.000303698 
-0.000351315 
-0.000394506 
-0.00044365 
-0.00044995 
-0.000338262 
-0.000313905 
-0.000460995 
-0.000455327 
-0.000407186 
-0.000432815 
-0.000485537 
-0.000520879 
-0.000525786 
-0.000545312 
-0.000450238 
-0.000139845 
0.00585561 
0.007252 
0.0104992 
0.00582305 
0.0108167 
0.0125575 
0.00660749 
0.00988598 
0.00865949 
0.00618826 
0.00830772 
0.00901524 
0.0110863 
0.00563184 
0.0099193 
0.0100825 
0.010834 
0.0105925 
0.00566668 
0.00592413 
0.00895705 
0.00871645 
0.00742412 
0.0106503 
0.0067873 
0.00814793 
0.0106439 
0.00772422 
0.0114277 
0.00562206 
0.00928896 
0.00580824 
-0.000359363 
-0.000368679 
-0.000410584 
-0.000481785 
-0.000406719 
-0.000452851 
-0.000501749 
-0.000515173 
-0.000396731 
-0.000459887 
-0.00049835 
-0.000479456 
-0.000362137 
-0.000419271 
-0.000451351 
-0.000433059 
-0.000485081 
-0.000503752 
-0.000526241 
-0.00049899 
-0.000468641 
-0.000467918 
-0.000450727 
-0.000413929 
-0.000480533 
-0.000461942 
-0.000429574 
-0.000439294 
-0.000438047 
-0.000464577 
-0.000432693 
-0.000352145 
-0.000493041 
0.00491154 
0.0042678 
0.000489467 
0.00572685 
0.00127432 
0.00526826 
0.00823659 
0.00924039 
0.00345024 
0.0032213 
0.00459009 
-0.000467801 
0.00287413 
0.00376106 
0.00356301 
0.00808008 
0.00789277 
0.00442926 
0.00418428 
0.00304869 
0.00589432 
-0.000234565 
-0.000219624 
-0.000188042 
-0.000182212 
-0.000354605 
-0.000244967 
-0.000223472 
-0.000263282 
-0.000466885 
-0.000384857 
-0.000301054 
-0.000356582 
-0.00019983 
-0.000203238 
-0.000301629 
-0.000271458 
-0.000244832 
-0.000220469 
-0.000128587 
-0.000153789 
-0.000328862 
-0.000228882 
-0.000128207 
-0.000206315 
-0.000179069 
2.09665e-05 
0.00360774 
5.53785e-05 
-0.00025605 
-0.000432745 
-0.000192383 
0.00498694 
0.0122267 
-9.44411e-05 
-0.000378958 
-0.000149608 
0.0120128 
-0.000448406 
-4.90998e-05 
-0.000220867 
0.00502002 
0.0103558 
-0.000109321 
9.35818e-05 
-0.000465893 
-0.000483055 
0.0119474 
0.0100009 
-0.000319954 
0.00592592 
0.00877788 
0.00879187 
-0.000262229 
0.00563809 
0.0114083 
-0.00692265 
-0.000396175 
-0.000476888 
0.00871033 
-0.000438249 
0.0077635 
-0.000402427 
0.00488011 
-0.000173162 
-0.000265683 
-0.000271872 
0.00670944 
0.00655972 
-0.000431477 
-0.000380697 
0.0121538 
0.00854094 
-0.000335503 
0.00654078 
0.00415677 
-0.000248346 
0.00241807 
0.00263058 
-0.000354875 
0.00365891 
-0.000222974 
0.00351001 
-0.000284053 
0.00752149 
0.00708569 
-0.000453357 
0.00513959 
-0.00035858 
0.00536229 
0.0049512 
0.0037954 
-0.000353062 
-0.000337152 
-0.000326008 
0.00380236 
0.00309775 
0.00598478 
0.00667314 
0.00614424 
0.00651075 
0.0116962 
0.0112532 
0.0020373 
0.00671904 
0.00407977 
0.000911228 
-0.000768733 
0.00505019 
0.00436048 
0.00297208 
0.00234288 
0.0102895 
0.0100351 
-0.00020195 
0.00201259 
0.00336158 
0.00369988 
0.00231696 
0.00591634 
0.00817065 
0.00501415 
0.00252231 
0.00140142 
-0.000432056 
-0.000289032 
-0.00027247 
-0.000262202 
-0.000371359 
-0.000327917 
-0.000252285 
-0.000206797 
-0.000274148 
-0.000180233 
-0.000182446 
-0.000164983 
-0.000207099 
-0.00016462 
-0.000301147 
-0.000371448 
-0.00044297 
-0.000236832 
-0.000293493 
-0.000339355 
-0.000179477 
-0.000243091 
-0.000213609 
-0.000108732 
-9.04159e-05 
-0.000233503 
0.014194 
0.00295582 
0.00796418 
0.0096683 
0.00311977 
0.00173546 
0.00214231 
0.00312497 
0.00403931 
0.0025321 
0.00113698 
0.00245351 
0.00310565 
0.0046303 
0.00345315 
-0.00346309 
-0.000325075 
-1.84624e-05 
-0.00104843 
0.00443038 
0.00258369 
0.00162597 
0.00824293 
0.00959599 
0.000200147 
0.0041896 
0.00467137 
0.00259538 
-0.000344682 
-0.000149306 
-0.000296895 
-0.000228738 
-0.000157216 
-0.000140014 
-0.000220754 
-0.00018587 
-0.000171628 
-0.000180514 
-0.00024677 
-0.000141111 
-0.000166814 
-0.000198146 
-8.14503e-05 
-0.000170571 
-0.000109526 
-0.000157406 
-0.000243041 
-0.000274661 
-0.000321471 
-0.000204903 
-0.000244802 
-0.00027153 
0.0114061 
0.0130014 
0.0117218 
0.00995019 
0.00302142 
0.00484723 
0.0050623 
0.00402014 
0.00125745 
0.00183131 
0.00330898 
0.00570115 
-0.000809703 
0.00209829 
0.00691422 
0.00705684 
0.0079251 
0.00674547 
0.00713383 
0.00668261 
0.00781619 
0.00760659 
0.00857795 
0.00947829 
0.00977506 
0.00893871 
0.0118625 
0.011809 
0.00326354 
0.00592825 
0.00900907 
-0.000442333 
-0.000258113 
-0.000151248 
-0.000451603 
-0.000489455 
-0.00043161 
-0.000418966 
-0.00027421 
-0.000366528 
-0.000386254 
-0.000386705 
-0.000188983 
-0.000260635 
-0.000353049 
-0.000425152 
-0.000229963 
-0.000372328 
-0.000395035 
-0.000395751 
-0.000354876 
-0.00033759 
-0.000420437 
-0.000400212 
-0.000378146 
-0.000423347 
-0.000490716 
-0.000465884 
-0.000471478 
-0.000491801 
-0.000496197 
-0.00047369 
-0.000256463 
0.00802946 
0.00622182 
-0.00040005 
0.00225506 
-0.000406323 
-0.000290419 
-0.000245574 
0.00665925 
-0.00028649 
-0.000255212 
0.00308191 
-0.000236568 
0.008418 
0.00595132 
-0.000301442 
0.00817195 
0.00871273 
-0.000236373 
-0.000202571 
-0.000270278 
-0.000356884 
0.0103664 
0.0049261 
-0.000343495 
-0.00411728 
0.00596126 
0.00762026 
-0.000386128 
-0.000420276 
-0.000222995 
-0.000247813 
-0.000409937 
0.00133615 
-8.94316e-05 
0.00453733 
0.0049219 
-0.000265026 
-0.00026633 
0.00570819 
-0.000283884 
-5.43418e-05 
0.00837953 
-0.000248591 
-9.82801e-05 
-0.000130925 
0.00447999 
0.00361289 
0.00302133 
0.00568461 
0.00774901 
0.00977387 
0.00966277 
0.0114817 
0.0135967 
0.00797091 
0.0123191 
0.00815475 
0.00810912 
0.00974781 
0.00446419 
0.0116902 
0.00878908 
0.00207978 
-0.00354951 
0.0156235 
0.0164591 
0.00735279 
0.0100158 
0.0125218 
0.0115215 
0.00103054 
-0.0019761 
0.00782123 
-0.000337166 
-0.000348452 
-0.00038898 
-0.000392931 
-0.00045708 
-0.000410646 
-0.000429617 
-0.000533034 
-0.000532653 
-0.000558817 
-0.000608133 
-0.000639523 
-0.000525395 
-0.000558842 
-0.000355053 
-0.000381016 
-0.000307722 
-0.000187414 
-0.000400197 
-0.000272062 
-0.000169237 
-0.000147002 
-0.000570669 
-0.000427271 
-0.000296598 
-0.000394541 
-0.000557909 
-0.000505085 
0.00448323 
0.00702629 
0.0052554 
0.005277 
0.000982052 
0.00286901 
0.0037908 
0.00841033 
0.00582829 
0.00776914 
0.0133782 
0.00705982 
0.0102614 
0.00615941 
0.00836963 
0.0113644 
0.0129467 
0.00950612 
0.00991684 
0.00957146 
0.00462311 
0.0158236 
0.0111241 
0.00875033 
0.0106418 
0.0120941 
0.00840312 
0.000703764 
0.00715212 
-0.000412964 
-0.000503798 
-0.000276723 
-0.00035454 
-0.000408594 
-0.00040673 
-0.000303451 
-0.000299039 
-0.000377896 
-0.00046392 
-0.000411972 
-0.000380822 
-0.000467919 
-0.000514892 
-0.000545846 
-0.000521714 
-0.000486264 
-0.000532591 
-0.000535211 
-0.000444271 
-0.000445087 
-0.000462318 
-0.00038835 
-0.000287033 
-0.000416998 
-0.000393055 
-0.000326652 
-0.000323889 
0.00493689 
0.00306261 
0.000117096 
-8.33107e-05 
0.000415071 
-0.00144589 
0.00515153 
0.00414828 
0.0042335 
0.00916477 
0.00541077 
-0.00505809 
-0.0173644 
-0.0109699 
-0.00271592 
0.00313828 
0.00454709 
0.00324561 
0.00480717 
0.00137884 
0.00459888 
0.00482979 
0.00698095 
0.00292262 
0.00587437 
-0.000104148 
-0.00013299 
5.87659e-05 
8.71201e-05 
-0.000127484 
-6.21395e-05 
-6.07942e-05 
-0.000138067 
-0.000308557 
-0.00019738 
-0.000189176 
-0.000232732 
-0.000359982 
-0.000297746 
0.000108174 
0.000173631 
7.85614e-06 
-0.000205344 
-0.00015169 
-6.27813e-05 
-8.09315e-05 
-0.000228126 
-0.000220187 
-0.000181772 
-0.000114222 
-0.000170264 
-0.000209178 
-9.17342e-05 
0.00607685 
0.00450339 
0.00441608 
0.00722383 
-0.000179057 
-0.00030904 
0.00621602 
0.00615588 
-0.0002354 
0.00877949 
-0.000325745 
-0.000189604 
-0.000272992 
0.00151101 
-0.000394395 
-0.000267093 
-9.34769e-05 
0.00429496 
0.00199255 
-0.000250392 
-0.000439644 
0.00713423 
-0.000126168 
0.00549858 
0.00921118 
-0.000306621 
-0.000262363 
0.0106386 
0.000545383 
-0.000171606 
-0.00014803 
-0.000453999 
0.00527672 
0.00292658 
0.00243464 
-0.000135685 
0.00535901 
-0.000210065 
-0.000329937 
-0.000251904 
-0.000363511 
0.0102794 
-0.000387993 
ITEM: TIMESTEP
4504000
ITEM: NUMBER OF ATOMS
896
ITEM: BOX BOUNDS pp pp ff
-1.7153631884999999e+01 1.8003017117999999e+01
-1.7855467918999999e+01 1.7553981017000002e+01
-3.4618715923000003e+01 3.4618715923000003e+01
ITEM: ATOMS q 
-0.00039597 
-0.000518761 
-0.000664756 
-0.000629391 
0.0100922 
-0.000318895 
0.00661415 
0.00124848 
0.0119427 
0.0123775 
0.014651 
0.00512263 
-0.000298273 
-0.000588649 
-0.000566024 
0.00762074 
-0.000280939 
-0.000594789 
0.00435328 
-0.000431426 
0.0042997 
0.00898944 
-0.000339012 
-0.000409121 
-0.000606926 
0.00121162 
-0.000519955 
-0.00179659 
2.84101e-05 
0.00401106 
0.00577874 
0.00513638 
0.00105233 
0.00700075 
0.0120139 
0.0141111 
0.0081437 
0.0114716 
0.011361 
0.00878001 
0.00561108 
0.00582916 
0.010144 
0.012902 
0.0123055 
0.0103132 
0.00975101 
0.00615098 
0.00494283 
0.00549537 
0.00122659 
-0.000368752 
-0.000346753 
-0.000437409 
-0.000472981 
-0.000564301 
-0.000421061 
-0.00052348 
-0.000577893 
-0.000665025 
-0.000560725 
-0.000559261 
-0.000482582 
-0.000502786 
-0.000483624 
-0.000440853 
-0.000539114 
-0.000550269 
-0.000497905 
-0.000399342 
-0.000438399 
-0.000388098 
0.0121482 
0.0086807 
0.0096466 
0.00577155 
0.00697844 
0.00706543 
0.00425168 
0.00120903 
0.00602496 
0.00197837 
0.000381834 
0.00137617 
-0.000255821 
0.00567635 
0.00539301 
0.0069755 
0.00580357 
0.00518842 
0.00204159 
0.00487779 
0.00157561 
0.00367508 
0.00507313 
0.00416235 
0.00558357 
0.00589512 
0.00726106 
0.0111723 
0.00387449 
0.00533483 
0.010018 
0.00928743 
-0.000561512 
-0.00050528 
-0.000454421 
-0.000376452 
-0.000373391 
-0.000357024 
-0.00033719 
-0.000315307 
-0.000376941 
-0.000247134 
-0.000302072 
-0.00036156 
-0.0005501 
-0.000335365 
-0.000362631 
-0.000381699 
-0.000337565 
-0.000333351 
-0.000303064 
-0.000361244 
-0.000345268 
-0.000349851 
-0.000451388 
-0.000445209 
-0.000493357 
-0.000447639 
-0.00052706 
-0.000600513 
-0.000373734 
0.00806751 
0.00636971 
0.00506369 
0.00489309 
0.00788167 
0.00799466 
0.00455907 
0.00220501 
0.00249081 
0.00546559 
0.00261258 
0.00135864 
0.00330548 
0.00869415 
0.0119923 
0.0106399 
0.000279144 
0.00139991 
0.00375586 
0.00054763 
-5.83124e-05 
0.000518715 
0.00131702 
0.0065679 
0.003988 
-0.0001214 
0.0112372 
-0.000448546 
-0.000446281 
-0.000309985 
-0.000385175 
-0.000365179 
-0.000363181 
-0.000322137 
-0.000355814 
-0.000348786 
-0.000280368 
-0.00022853 
-0.000286783 
-0.000278435 
-0.000219794 
-0.000213948 
-0.000351754 
-0.000437156 
-0.000345493 
-0.000221218 
-0.000223331 
-0.000287387 
-0.000212393 
-0.000175166 
-0.000284769 
-0.000266115 
-0.00030472 
-0.000406996 
-0.000595561 
0.0106503 
0.00364546 
-0.000601565 
0.0026631 
0.00689793 
0.0168021 
0.00441927 
0.0105035 
-0.000254159 
-0.000339184 
0.0118001 
-0.000414152 
0.00260195 
0.0114721 
-0.000387268 
-0.000589004 
-0.000612804 
-0.000428219 
0.00457278 
0.00821189 
-0.000630963 
-0.000603101 
0.00667897 
-0.000261396 
0.0143534 
-0.000322407 
0.00858637 
-0.000539525 
-0.000606204 
0.00459549 
-0.000597766 
-0.000388727 
-0.000633661 
0.0105775 
0.00643121 
-0.000455956 
0.00846798 
0.00263208 
-0.000637217 
-0.000512789 
-0.00038772 
0.00979064 
0.0121286 
-0.000352939 
-0.000387268 
-0.000320774 
0.00726751 
-0.000375336 
0.00455424 
0.00476344 
0.00871585 
0.00373767 
-0.000332376 
-0.000141776 
-0.000284477 
0.00449103 
-0.000184419 
0.00280474 
-0.000349365 
-0.000307943 
0.00597477 
0.00746675 
-0.000262815 
0.0043342 
-0.000268137 
-0.000458715 
0.0075035 
0.00505722 
-0.000328116 
0.0025823 
-0.00036258 
-0.000459904 
-0.00046347 
0.00156188 
0.00172616 
-0.00326255 
-0.0054901 
-0.00921869 
-0.00491709 
0.00626455 
-0.000500629 
0.00467313 
0.00598213 
0.00661771 
0.0107784 
0.0147035 
0.000619748 
0.00737273 
0.0129744 
0.00712294 
0.00338925 
0.00327026 
0.00466195 
0.000101133 
0.00933255 
0.00375341 
0.00169123 
-0.000122602 
-0.000211088 
-0.000270999 
-0.000281748 
-0.000109533 
-3.2095e-05 
-0.000158574 
-0.00023401 
-0.000352371 
-0.000211181 
-0.000230211 
-0.000322613 
-0.000450841 
-0.000505216 
-0.000498099 
-0.000497534 
-0.000368085 
-0.000493702 
-0.000508872 
-0.000411783 
-0.000287784 
-0.00031945 
-0.000326705 
-0.000257873 
0.00629735 
0.0104944 
0.00779989 
0.0088966 
0.00940047 
0.00505776 
0.0077567 
0.0076142 
0.00695182 
0.00890056 
0.00887059 
0.00989191 
0.00656104 
0.00401796 
0.00845144 
0.00652205 
0.00135617 
-0.00508065 
0.00832734 
0.0062186 
0.00501261 
0.00829687 
0.0089193 
0.00988122 
0.00791805 
0.00616733 
0.00398785 
0.00807876 
0.00976537 
0.00603665 
-0.00353069 
0.00621663 
0.00406002 
0.00570317 
-0.000455302 
-0.000431733 
-0.000396553 
-0.000439069 
-0.00047216 
-0.000481864 
-0.000487634 
-0.000490681 
-0.000544795 
-0.000518063 
-0.000519642 
-0.000521545 
-0.000507079 
-0.000508511 
-0.000474517 
-0.000422533 
-0.000313158 
-0.000239879 
-0.000195757 
-0.000202166 
-0.000452895 
-0.000337704 
-0.000290553 
-0.000395405 
-0.000497766 
-0.000477317 
-0.000443367 
-0.000411023 
-0.000440308 
-0.000475388 
-0.000417702 
-0.000368195 
-0.000336076 
-0.000306532 
-0.000543211 
0.00284265 
0.00816731 
0.0102132 
0.00768003 
0.00612431 
0.00944295 
0.0027771 
0.00658243 
0.00511266 
0.00903338 
0.0129308 
0.00582705 
0.00980775 
0.00984315 
0.00960687 
0.0101443 
0.00954931 
0.00898526 
0.0107472 
0.0137693 
0.0154658 
-0.000457335 
-0.000462839 
-0.000457027 
-0.000513084 
-0.000443803 
-0.000498066 
-0.000536247 
-0.000581439 
-0.00032502 
-0.000432193 
-0.000524689 
-0.00054317 
-0.00049893 
-0.000423595 
-0.000301425 
-0.000297311 
-0.000563011 
-0.000489696 
-0.000299684 
-0.000350426 
-0.000567401 
-0.000522779 
-0.000302388 
-0.000352528 
-0.000285547 
-0.000318658 
-0.000315663 
0.00370553 
-0.000373595 
-0.000399713 
-0.000373612 
0.0107188 
-0.000175607 
0.00400332 
-0.000374193 
0.00397269 
0.00933255 
0.00499109 
0.00145782 
0.0111166 
0.00583192 
-0.000363128 
-0.00144088 
0.000945956 
0.0120797 
-0.000465619 
0.00674669 
-0.000244947 
-0.000338695 
-0.000840187 
0.0022644 
3.66944e-05 
0.00328034 
-0.000630101 
-0.00036965 
-0.0148015 
0.00181765 
-0.00407688 
-0.000352387 
0.00768587 
-0.000433727 
-5.3425e-05 
-0.000240554 
-0.000291357 
0.0040445 
0.00637562 
-0.000490195 
-0.000444685 
0.00764945 
0.0055953 
-0.000287236 
3.54122e-05 
0.00717402 
-0.000168475 
0.00906629 
0.00751853 
0.0076228 
0.00393381 
0.0137115 
0.00933387 
0.00426787 
0.00278093 
0.00582931 
0.00832719 
0.00516469 