ITEM: TIMESTEP
4500000
ITEM: NUMBER OF ATOMS
896
ITEM: BOX BOUNDS pp pp ff
-1.7153631884999999e+01 1.8003017117999999e+01
-1.7855467918999999e+01 1.7553981017000002e+01
-3.4618715923000003e+01 3.4618715923000003e+01
ITEM: ATOMS q 
0.00019309 
7.75504e-05 
-2.83804e-06 
4.1618e-05 
-0.000128521 
-9.26241e-05 
-9.60299e-06 
0.000107372 
-0.000243298 
-0.000223635 
0.000138457 
0.000197492 
-9.18318e-05 
9.58701e-05 
0.000134425 
8.44974e-05 
0.000142308 
0.000232001 
0.000136168 
0.000171647 
0.00025629 
0.000259162 
0.000103753 
0.000129316 
0.000182139 
0.000180227 
6.26334e-05 
0.000116788 
-0.00277286 
0.00207483 
-0.0129997 
-0.00905386 
-0.0138141 
0.000937947 
-0.00143738 
-0.00166705 
-0.0394575 
-0.0141608 
-0.000798579 
-0.00312374 
-0.00166064 
-0.00185726 
-0.00750724 
-0.0150413 
-0.00463043 
-0.00700376 
-0.00800974 
-0.0101028 
-0.00313084 
-0.00578444 
-0.00673322 
-0.00161947 
-0.00559399 
-0.0002588 
5.0191e-06 
-0.000187882 
-4.75715e-05 
5.14484e-05 
0.000127053 
-0.000200063 
-2.40591e-05 
0.000169798 
0.000106761 
-0.000170932 
-5.65807e-05 
2.89438e-05 
-1.09414e-05 
2.75878e-05 
0.000171222 
7.59462e-05 
6.67925e-05 
0.000148642 
0.000173207 
8.6301e-05 
9.75094e-05 
0.0001331 
0.000148433 
6.87546e-05 
9.50423e-05 
0.000129294 
0.000222761 
-0.00172238 
0.000449004 
-0.0227097 
-0.0012415 
0.00186272 
-0.00155525 
-0.0071874 
-0.013677 
-0.00360096 
-0.00295202 
0.00132435 
-0.00260136 
-0.00456016 
-0.0037638 
-0.00457796 
-0.00648354 
-0.00671762 
-0.00329561 
-0.00112427 
-0.00372766 
-0.00801164 
-0.00594403 
-0.00399199 
-0.00349878 
0.000164984 
2.33572e-05 
2.2623e-05 
8.52024e-05 
0.000335532 
0.000260332 
0.000195951 
0.000199622 
0.000226477 
0.000299552 
0.000257566 
8.57244e-05 
0.000189522 
0.000107196 
0.000160048 
0.000169832 
0.000313119 
0.00041654 
0.000177411 
0.000295058 
0.000474521 
0.000358243 
-2.13543e-05 
0.000119071 
0.000154563 
2.27244e-06 
-9.50143e-05 
-7.97718e-05 
-0.00258662 
-0.0140992 
-0.00778429 
-0.00408183 
-0.00495553 
-0.000614872 
-0.000697812 
-0.0151641 
-0.00394579 
-0.00170458 
-0.00387331 
-0.0102486 
-0.0121523 
-0.000543238 
0.000772554 
-0.00275997 
0.00411776 
-0.0134594 
-0.012863 
-0.0121682 
-0.00881476 
-0.0230738 
-0.0229992 
-0.000577098 
-0.006839 
-0.0046208 
-0.000828124 
0.00100659 
0.000209891 
7.84694e-05 
0.000303994 
0.000301307 
0.000269574 
0.000430618 
0.000278148 
0.000421672 
0.00062791 
0.000674119 
0.000216812 
0.00025929 
0.000439617 
0.000315876 
-4.71626e-05 
-9.06882e-05 
0.000335438 
4.81174e-05 
-3.53014e-05 
-1.97457e-05 
0.000637538 
0.000424392 
0.000131744 
8.41947e-05 
0.000376423 
0.000427775 
0.000189265 
4.91268e-05 
-0.00896354 
-0.00526675 
-0.00458671 
-0.00525674 
-0.00624769 
0.00542877 
-0.0166109 
-0.00827002 
-0.00449164 
-0.011657 
-0.00728838 
-0.0285603 
-0.0263483 
-0.0200371 
-0.00259414 
-0.00679032 
-0.0271927 
-0.0180203 
0.00217595 
-0.000744372 
0.000394223 
-0.000845167 
-0.0111876 
-0.00213432 
0.00167714 
-0.00968204 
-0.00738861 
0.00155449 
0.000362841 
0.000170763 
3.17911e-05 
0.000101066 
0.000296066 
0.000318556 
0.000176788 
0.000167281 
2.14296e-06 
0.000105564 
0.000129318 
0.000181831 
1.03954e-05 
0.000139994 
5.9215e-05 
2.34725e-05 
0.000145111 
0.000250916 
0.000187838 
0.000132013 
0.000223589 
0.000368174 
0.000370357 
0.000338271 
0.00040683 
0.000451988 
0.00038876 
0.000447288 
0.000411575 
0.000564373 
0.000403887 
-0.0147371 
-0.00657305 
0.00394919 
-0.00228681 
-0.00346056 
-0.000362204 
-0.00238977 
-0.00436304 
-0.00628334 
-0.00647036 
-0.00469274 
-0.000930431 
-0.00275904 
-0.00656483 
-0.0115769 
-0.00663119 
-0.0112196 
-0.00214344 
-0.0104666 
-0.00647625 
-0.0129166 
-0.00219494 
-0.00159987 
-0.0105622 
-0.0144668 
-0.0200173 
-0.0113172 
-0.00934611 
-0.0114466 
-0.0186499 
-0.0130448 
-2.23253e-05 
0.000110594 
-7.36412e-05 
-2.47554e-05 
-1.38237e-05 
-0.000139227 
-8.26133e-05 
-9.65339e-05 
-0.000158819 
-0.000121325 
-6.42413e-05 
-8.12779e-05 
-4.36298e-05 
6.70527e-05 
0.000177422 
0.000319921 
-0.000146099 
5.67971e-05 
0.000163457 
0.000110199 
-0.000106311 
-0.000116687 
3.377e-05 
0.00010401 
0.000166102 
5.36231e-05 
0.000116579 
0.000209259 
0.000239534 
0.000169578 
0.000224965 
0.000217141 
-0.00264736 
-0.00175806 
0.00213649 
0.00207 
-0.00559392 
-0.00505985 
-0.00229927 
-0.0021252 
0.00117268 
0.00697768 
-0.00256885 
0.00217555 
0.0104159 
0.00134709 
0.00219697 
-0.00455157 
-0.00341961 
-0.00620496 
-0.00601349 
-0.00462147 
-0.0018983 
-0.00654044 
-0.0073904 
-0.00789774 
-0.0002598 
-0.00287265 
-0.00669915 
-0.00343968 
-0.00571524 
-0.00362567 
-0.00538257 
-0.00953138 
0.000303078 
0.00033635 
0.000571621 
0.000603438 
0.00078858 
0.000764176 
0.000544866 
0.000590935 
0.000356837 
0.000276154 
0.000182856 
0.000482378 
0.000267716 
0.000322076 
0.000522422 
0.000763139 
0.000645673 
0.000532943 
0.000610422 
0.000343224 
0.000567335 
0.000504377 
0.000244945 
0.000133715 
9.06523e-05 
-0.0190612 
-0.0068368 
-0.00331534 
-0.00732772 
-0.026407 
-0.028936 
-0.0236424 
-0.0280884 
-0.00473646 
-0.0126007 
-0.0174908 
-0.0041232 
-0.00390594 
-0.00192635 
-0.00986643 
-0.00743368 
-0.00744766 
-0.0219804 
-0.0128196 
-0.0127009 
-0.0164119 
-0.0187596 
-0.00781742 
-0.0173877 
-0.0180496 
-0.0197611 
-0.00179837 
-0.00062343 
7.51384e-05 
0.000140988 
6.95634e-05 
0.000111251 
0.000208254 
0.000214893 
0.000240883 
0.000264503 
0.000283418 
0.00010621 
3.88482e-05 
-0.000142377 
7.60448e-05 
-3.85359e-06 
-6.5252e-05 
-0.00014412 
0.000149994 
8.72075e-05 
3.51027e-07 
-0.000135387 
-5.53264e-06 
4.74011e-05 
-7.43006e-05 
-0.00024542 
-0.00335796 
-0.00379852 
-0.00199665 
0.000790343 
-0.00151603 
-0.00482058 
-0.0140279 
-0.00743701 
-0.00546877 
-0.00772948 
-0.00488777 
-0.0148357 
-0.00939554 
-0.00129764 
-0.00111798 
0.00283066 
-0.00548026 
0.00130533 
0.00406789 
-0.00493242 
-0.00386218 
-0.00183899 
-0.000907115 
-0.00175695 
0.000443516 
-0.000170065 
0.00236751 
0.00316316 
-0.000164534 
-7.35138e-05 
-9.05815e-05 
-0.000120295 
-0.000293229 
-8.2178e-05 
-8.75103e-05 
-4.79307e-06 
-0.000296141 
-0.000193192 
4.65985e-05 
5.50857e-05 
-8.65791e-05 
-7.23151e-05 
-1.26893e-06 
-8.50097e-06 
-3.18502e-05 
8.64957e-05 
0.00023134 
0.000180773 
-1.19617e-05 
9.03964e-06 
8.2812e-05 
0.000144696 
6.04479e-05 
5.82256e-05 
0.000153267 
0.000210981 
4.437e-05 
7.56781e-05 
0.000139856 
6.65279e-05 
0.00739434 
0.00129192 
-0.00188114 
0.00182965 
-0.0124136 
0.00175871 
0.00368157 
-0.000289255 
-0.0141827 
-0.0115169 
-0.00178444 
-0.00211263 
0.00177473 
0.001077 
-0.00220025 
-0.00285209 
-0.00493201 
-0.0133159 
-0.0168869 
-0.000523709 
-0.00285968 
-0.0010419 
-0.00492773 
-0.00568863 
-0.0115815 
-0.00489527 
-0.00601884 
-0.00651591 
5.21562e-05 
1.93853e-05 
-3.49124e-06 
3.64803e-05 
3.69617e-05 
2.19961e-05 
4.20691e-05 
3.08418e-05 
7.43477e-05 
-1.85311e-05 
-2.70012e-05 
-3.07341e-05 
4.09893e-05 
4.56454e-05 
1.05237e-05 
-0.000158645 
3.11479e-05 
1.35067e-05 
-0.000131704 
-0.000158658 
6.12823e-05 
7.01835e-05 
1.44256e-05 
1.09188e-05 
0.00264858 
-0.00211638 
-0.00266311 
-0.00371308 
-0.00471727 
-0.0047466 
-0.00744626 
-0.00445851 
0.004949 
-0.00219575 
0.00368946 
-0.00967554 
-0.0045889 
-0.00433943 
-0.00129259 
-0.00215811 
0.000263273 
0.0132515 
-0.0161554 
-0.00122234 
-0.00107283 
0.000160424 
0.000163808 
7.86495e-05 
5.66285e-05 
0.000210202 
0.000136702 
0.00012395 
0.000231651 
0.000328358 
0.000340569 
0.000376781 
0.000303954 
3.57498e-05 
0.00022245 
0.000201404 
-1.79359e-05 
4.36264e-05 
0.000131804 
6.57562e-05 
4.37997e-05 
0.000236673 
0.000108762 
0.00014075 
0.000382456 
0.000243681 
0.000319769 
0.000445445 
0.000425224 
-2.71111e-05 
0.000130846 
0.000201383 
0.000107575 
-0.00716609 
-0.00126142 
-0.0135913 
-0.00216795 
0.00204234 
0.00120926 
0.00174004 
0.00275383 
-0.0103036 
-0.00348762 
-0.00398476 
-0.00806872 
-0.0112173 
-0.0181576 
-0.0125655 
-0.00109827 
-0.00127757 
-0.0101387 
-0.00503433 
-0.00030195 
0.000284831 
-0.000754707 
0.000490366 
-0.00457635 
-0.00131434 
-0.00699075 
-0.00773051 
-0.018799 
-0.0238647 
0.000512858 
-0.00581245 
-0.00945947 
-0.000297469 
-0.000165339 
-0.000185446 
-0.000257981 
-0.00025088 
-0.000334694 
-0.000289821 
-0.000180307 
-6.10427e-05 
-0.000135011 
-0.000116069 
-4.89716e-05 
-0.000184796 
-0.000101529 
-2.98409e-05 
-3.04996e-05 
-9.70556e-05 
-0.000119959 
-3.90544e-05 
6.02034e-05 
3.98075e-05 
2.87765e-05 
0.000111092 
0.000186603 
0.00731913 
0.00518932 
-0.00372704 
0.00899828 
0.00175223 
0.0028106 
0.00471384 
0.00183151 
0.00667408 
0.00237895 
-0.00192252 
-0.0039443 
-0.000469153 
-0.000327156 
-0.00117799 
-0.00206531 
-0.000776212 
-0.000427922 
-0.00188714 
-1.26399e-05 
-0.00129413 
-0.0102359 
-0.00721133 
-0.00727378 
8.2216e-05 
-3.08777e-06 
9.26478e-05 
0.000298519 
0.000438865 
0.000236054 
0.000311448 
0.000334351 
0.000465519 
0.000477329 
0.00032073 
0.000284299 
0.000193233 
0.000318954 
0.000305327 
0.000246176 
0.000471844 
0.000355934 
0.000323081 
0.000305468 
0.000344233 
0.000444431 
0.000373748 
0.000451351 
0.000330486 
0.000395077 
0.000573301 
0.000688046 
0.000264253 
0.000362807 
0.000540922 
0.00047652 
8.15043e-05 
0.000331575 
0.000855519 
0.000533976 
-0.001292 
-0.0153588 
-0.0147651 
-0.00493474 
-0.00330219 
0.00235404 
-0.00913627 
-0.0239846 
-0.0113782 
-0.0103817 
-0.00862175 
-0.0066648 
-0.00903646 
-0.00297429 
-0.00491231 
-0.00378062 
-0.00831449 
-0.0106546 
-0.00691543 
-0.00498412 
-0.0210053 
-0.0086324 
-0.00755422 
-0.00137138 
-0.0045446 
-0.00847924 
-0.00211119 
-0.00226464 
-0.0134129 
-0.0193073 
-0.0255701 
-0.0379981 
-0.00560607 
-0.0159432 
-0.0241868 
-0.0110236 
4.67501e-05 
0.000136825 
0.000205013 
0.000187855 
8.35983e-05 
7.35025e-05 
0.000141481 
8.73638e-05 
0.000113884 
6.73402e-05 
1.246e-05 
-2.16081e-05 
0.00021232 
0.000243725 
0.000280036 
0.000254958 
0.000118082 
0.000169862 
0.000191105 
0.000178157 
5.17316e-05 
0.000118034 
0.000147911 
0.000116788 
0.000394649 
0.000288851 
0.000135315 
-0.00178954 
-0.00412937 
-0.00648014 
-0.00490517 
-0.00639672 
-0.00583773 
-0.00862931 
-0.00481515 
-0.00623338 
-0.00876012 
-0.00459058 
-0.00184387 
0.00167397 
-0.000200515 
-0.00337451 
-0.00499758 
-0.00490044 
-0.0060551 
-0.00704184 
-0.00456633 
-0.00522986 
-0.00582177 
-0.00583228 
-0.0159268 
-0.00462957 
-0.00330422 
-0.00577264 
8.35255e-05 
-2.59961e-05 
-0.000171156 
3.28905e-05 
-0.000127059 
-9.3137e-05 
0.000565171 
0.000264773 
0.000308413 
0.000698493 
0.000507881 
0.000341101 
-0.000204834 
-0.000157431 
-0.000207316 
-0.000318556 
-0.000232538 
-0.00027338 
-0.000255101 
-0.000306644 
1.55583e-06 
-0.000183343 
-0.000219744 
-0.000233961 
0.000156679 
-1.12369e-06 
-0.000118557 
-0.000120758 
0.00422116 
-0.00064887 
0.00161257 
0.00225727 
-0.00015382 
0.00500459 
0.0028418 
0.00694151 
-0.0279131 
-0.00487209 
0.00123077 
-0.00205517 
-0.00974871 
-0.0146089 
-0.00584169 
-0.00353371 
0.002021 
0.00256439 
0.00423359 
0.00810514 
0.00854959 
0.0021179 
0.000766648 
-0.0065016 
0.00242622 
0.00455142 
-0.00369325 
-0.00750134 
0.000341426 
0.0022358 
0.00187121 
0.00271839 
0.000466348 
0.00045628 
0.000532823 
0.000474464 
0.000667524 
0.000479547 
0.000242932 
0.000279106 
0.000180542 
0.000385528 
0.000161619 
3.74769e-05 
0.000108422 
0.000383074 
0.000380005 
0.000238804 
0.000187622 
0.000174654 
0.00021143 
0.000164156 
0.000200829 
-0.0179902 
-0.00756306 
-0.00748101 
-0.00957212 
-0.012782 
-0.0345635 
-0.0178234 
-0.00898382 
-0.00401037 
-0.00526172 
-0.00567391 
-0.00297939 
-0.00826456 
-0.000664776 
0.00165176 
0.000656198 
-0.00929578 
-0.0106728 
-0.00715875 
-0.00361473 
-0.00162481 
-0.0069605 
-0.00291029 
0.00994689 
ITEM: TIMESTEP
4502000
ITEM: NUMBER OF ATOMS
896
ITEM: BOX BOUNDS pp pp ff
-1.7153631884999999e+01 1.8003017117999999e+01
-1.7855467918999999e+01 1.7553981017000002e+01
-3.4618715923000003e+01 3.4618715923000003e+01
ITEM: ATOMS q 
-9.87521e-05 
-4.25393e-05 
-0.000149584 
-6.99803e-05 
-4.54229e-05 
-1.726e-05 
9.33286e-05 
0.000202367 
-4.05319e-06 
2.85979e-05 
0.000215735 
0.000130202 
-2.49921e-05 
-9.05006e-06 
3.4036e-06 
2.44917e-07 
0.000205658 
0.000356118 
0.000178356 
0.000170737 
0.000364906 
0.000413524 
0.000120975 
0.000183444 
0.000223632 
0.000167283 
8.99299e-05 
0.00012054 
0.00209881 
0.00987451 
0.0100882 
0.00475946 
-0.0205042 
-0.00558245 
-0.000317244 
-0.00399247 
-0.0103919 
-0.0109585 
-0.00570217 
-0.00262553 
0.00267882 
1.20292e-05 
-0.0066072 
-0.00656075 
-0.00864615 
-0.00310309 
-0.0110903 
-0.0177448 
-0.00258132 
-0.00352825 
-0.00484011 
-0.00237415 
-0.000584818 
0.00012044 
-1.07431e-05 
0.000249235 
4.83481e-05 
2.2228e-05 
0.000156208 
0.000347306 
0.000127895 
0.000208063 
0.000286093 
0.000372823 
0.000250519 
0.000349742 
0.000501937 
7.47797e-05 
0.000210772 
0.000271592 
0.000233052 
0.000337787 
0.000501938 
0.000301643 
0.000377068 
0.000532782 
0.00039229 
0.000378596 
0.000257875 
0.000199708 
0.000162898 
0.00808769 
-0.000419908 
-0.0076305 
0.000900702 
-0.00133157 
-0.00395116 
-0.00304705 
-0.00925957 
-0.00537553 
-0.00238856 
-0.02162 
-0.0108141 
-0.00821728 
-0.00811725 
-0.00109886 
-0.014275 
-0.0088863 
-0.0113036 
-0.00356549 
-0.022649 
-0.0221538 
0.00172939 
-0.00025735 
5.90125e-06 
0.000437811 
0.000256635 
0.000220835 
0.000275097 
0.000561969 
0.000557268 
0.00043772 
0.000348591 
0.000177914 
0.000375978 
0.000326787 
0.000112749 
9.74643e-05 
6.28114e-05 
0.000106003 
9.97903e-05 
-3.20694e-05 
-0.000109585 
0.000102457 
6.77068e-06 
-0.000123877 
-0.000104687 
8.17415e-05 
4.07291e-05 
-3.46952e-05 
7.98837e-05 
0.000109398 
0.000190408 
-0.0137397 
-0.0187953 
-0.00243057 
-0.0076514 
-0.0021478 
-0.00974816 
-0.0043402 
-0.0242616 
-0.0111704 
-0.00450579 
-0.00286522 
-0.0012986 
-0.00859131 
-0.00267151 
-0.00104988 
0.00247191 
-0.000398369 
0.00434273 
-0.000709069 
0.00177804 
0.0024782 
0.00575711 
0.00527138 
-0.00234606 
0.00254903 
0.00217715 
-0.00658617 
-0.00603733 
0.000175908 
5.45683e-05 
0.000487656 
0.000276136 
0.00016588 
0.000190772 
0.000383769 
0.000447682 
0.000299717 
0.000361655 
0.000263985 
0.000325252 
0.00044637 
0.000457678 
0.000102253 
0.000301017 
0.000142958 
0.00016629 
0.000287441 
0.000312002 
0.000325826 
0.000233599 
0.000289995 
0.000239443 
0.000423692 
0.000338157 
0.000204975 
0.000180202 
-6.75217e-05 
-0.0180759 
-0.00386399 
-0.00313349 
0.000373652 
-0.000764489 
-0.00775801 
-0.00453608 
-0.000588573 
0.00206036 
-0.00527992 
-0.00587119 
-0.00157921 
-0.00534784 
-0.0131774 
-0.0126668 
-0.0182384 
-0.0140911 
-0.00638689 
-0.00405697 
-0.00853983 
-0.0106762 
-0.00462476 
-0.0108572 
-0.0104084 
-0.00103576 
-0.00296302 
-0.00206879 
-6.28863e-05 
-3.53327e-05 
0.000128062 
0.000342104 
-3.05304e-05 
2.87065e-05 
0.000281383 
0.000338307 
0.000105249 
7.24537e-05 
0.000204138 
0.000253002 
0.000288126 
0.000295753 
0.000531251 
0.0003684 
0.000402169 
0.000464618 
0.000497283 
0.00058832 
0.000544583 
0.000567925 
0.000384784 
0.000489338 
0.000586316 
0.000642919 
0.000415182 
0.000608548 
0.000310697 
0.000575322 
0.000684135 
0.00348482 
0.00276439 
-0.000337918 
0.000238099 
0.000833643 
-0.00976266 
-0.0178935 
-0.0046312 
-0.0095652 
-0.0183396 
-0.0142303 
-0.00110399 
-0.00410067 
-0.00684287 
-0.00206478 
-0.00607384 
-0.0023784 
-0.0212345 
-0.017142 
-0.00514916 
-0.00442073 
-0.00525632 
-0.00745558 
-0.0108165 
-0.0147565 
-0.0171071 
-0.0141286 
-0.0163701 
-0.0202277 
-0.0233066 
-0.0254445 
0.00038406 
0.000291504 
0.00028299 
0.000331427 
0.000260846 
0.000152799 
0.000209381 
0.0002107 
0.000149753 
0.000239663 
0.000168856 
0.000168571 
0.000248931 
0.000328535 
0.0002584 
0.000491869 
0.000131898 
0.000193773 
0.000245108 
0.000178031 
0.000323959 
0.000212009 
0.000202164 
0.000242322 
0.00043085 
0.000407942 
0.000342303 
0.000331318 
0.00050568 
0.00021057 
0.000187617 
0.000243965 
-0.0125498 
-0.00599208 
-0.00386135 
-0.00225877 
-0.0186512 
-0.00424279 
0.00134451 
-0.00568383 
-0.00200236 
0.0011267 
-0.00292337 
-0.000733316 
-0.00289127 
-0.0118243 
-0.00305882 
-0.0038169 
-0.0107804 
-0.0154214 
-0.00432219 
-0.00737227 
0.00014335 
-0.00350101 
-0.00634953 
-0.00412734 
-0.00839555 
-0.00375761 
-0.00434698 
-0.00358314 
-0.0146171 
-0.00802147 
-0.00202216 
-0.00243636 
0.000180527 
9.55655e-05 
0.000155526 
0.000391388 
0.000299546 
0.00034187 
0.000600354 
0.000475063 
0.000494468 
0.000606009 
0.000536358 
8.9904e-05 
-1.29857e-05 
-5.18009e-05 
-4.09244e-05 
0.00023056 
0.000113885 
4.6619e-05 
7.59175e-05 
0.000422447 
0.000277412 
0.000191234 
0.000245484 
0.000462398 
0.000339634 
-0.00359459 
-0.00314194 
-0.0033077 
-0.00250295 
-0.0120591 
-0.00764898 
-0.00318935 
-0.00448748 
-0.00799307 
-0.00863893 
-0.00733342 
-0.00911812 
-0.0112932 
-0.0167614 
-0.000826843 
0.00124383 
0.00238863 
0.00163804 
-0.00308182 
-8.25965e-05 
-0.000758519 
-0.0071889 
-0.00638566 
-0.00408329 
-0.00275247 
-0.00824105 
-0.00733045 
-0.00373304 
0.000469409 
0.000302752 
0.000325978 
0.000241727 
0.000175024 
0.000161134 
0.000118526 
0.000193717 
0.000154505 
0.000155008 
0.000506408 
0.000427801 
0.000310211 
0.000428776 
0.000429138 
0.000488844 
0.000134644 
0.000242885 
0.000323604 
0.000595726 
0.000105751 
0.000155548 
0.000369193 
0.000431507 
-0.00911228 
-0.0155323 
-0.00145039 
-0.00461252 
-0.00682307 
-0.00752509 
-0.00494874 
-0.00147277 
-0.00303185 
0.00105202 
-0.00455038 
-0.00414655 
0.00010137 
0.000529175 
-0.013577 
-0.00441833 
-0.00921276 
-0.0124759 
-0.0101559 
-0.00423368 
-0.00306956 
-0.00623075 
-0.00618478 
-0.0205273 
-0.000743478 
-0.0096381 
-0.0312795 
-0.0111196 
0.000154307 
0.000341403 
0.000599328 
0.000562462 
4.95219e-05 
0.00017666 
0.000412172 
0.000395402 
5.5668e-05 
5.82613e-05 
0.000259865 
0.000327457 
-7.5289e-06 
0.000152777 
0.000345418 
0.000478408 
0.000571456 
0.000441567 
0.000284819 
0.000456059 
0.000540979 
0.000608832 
0.000681453 
0.000597629 
0.000361714 
0.000470066 
0.000505291 
0.000361246 
0.000441993 
0.000357759 
0.000324649 
0.000300959 
-0.00968223 
-0.027638 
-0.0181121 
-0.0103931 
-0.0129421 
-0.00818562 
-0.0127522 
-0.0112703 
-0.00766789 
-0.00677215 
-0.00315741 
-0.00389312 
-0.0184987 
-0.0105961 
-0.010272 
-0.0117124 
-0.0115308 
0.000404015 
-0.00116216 
-0.0235169 
-0.028409 
-0.0106636 
-0.00554734 
-0.00928279 
-0.00698025 
-0.00427636 
-0.00608877 
-0.00726175 
-0.00023793 
0.000104529 
0.000516527 
0.000454798 
-0.000234034 
-9.069e-05 
0.00024316 
0.00013865 
-7.65041e-05 
-6.65974e-05 
3.96033e-05 
-5.64353e-05 
0.000311254 
0.000335891 
0.000229901 
0.000169759 
0.000128832 
0.000151911 
0.000115827 
9.73563e-05 
-3.25769e-05 
7.01212e-05 
9.30644e-05 
9.71713e-05 
-0.0302758 
-0.0240851 
-0.0192125 
-0.00190313 
-0.012834 
-0.00923852 
-0.0019111 
-0.00193634 
-0.00173775 
-0.00268273 
0.000112144 
0.00393668 
0.00204949 
-0.00304628 
-0.00888131 
-0.00514989 
-0.00152931 
-0.00420743 
-0.000681437 
-0.00768284 
-0.00181338 
0.000398369 
0.000356804 
0.000444022 
0.000443454 
0.000535298 
0.000524904 
0.00050075 
0.000466056 
0.000349603 
0.000478112 
0.000498474 
0.000266634 
0.000309368 
0.000292274 
0.000194166 
0.000107766 
0.000371688 
0.000332371 
0.000226357 
0.000225186 
0.000314301 
0.000279959 
0.000217818 
0.00019718 
0.00014123 
0.000199013 
0.0001507 
0.000191388 
0.000123134 
0.00011617 
0.000204995 
0.00032088 
-0.00543681 
-0.00871834 
-0.00286313 
-0.0145764 
-0.00702049 
-0.0107508 
-0.0101818 
-0.00497443 
-0.0171006 
-0.0139842 
-0.0101896 
-0.00686523 
-0.00433543 
-0.0236396 
-0.010627 
0.00429174 
-0.00650008 
-0.00112744 
0.00109348 
-0.00218574 
-0.00579838 
-0.00271827 
-0.00537343 
-0.00196902 
-0.00313601 
-0.00837437 
0.000569749 
-0.00217823 
-0.00497879 
-0.00575966 
-0.00300878 
-0.00710662 
0.000139375 
0.000178555 
9.59196e-05 
6.05016e-05 
4.56771e-05 
2.63681e-05 
-1.31972e-07 
4.90256e-05 
7.28808e-05 
5.78784e-06 
2.51318e-05 
0.0001207 
0.000204555 
0.000263919 
0.00039189 
0.000341147 
0.000169629 
0.000262257 
0.000317088 
0.000177039 
0.000280311 
0.000276552 
0.000237179 
8.978e-05 
-0.00464862 
-0.00152321 
-0.000132448 
0.00104858 
0.000880618 
0.000669311 
-0.00409108 
0.000411559 
0.00357665 
0.00226863 
-0.0039374 
0.00302246 
0.00213052 
-0.00387083 
-0.0170832 
-0.0198092 
-0.0143761 
-0.0079448 
-0.00613469 
-0.00857881 
-0.00255768 
-0.0153464 
-0.0093491 
-0.000856379 
0.00021095 
0.00018602 
0.000236144 
0.000161154 
0.000163646 
0.000140459 
4.31886e-05 
-2.57565e-05 
0.000232883 
0.000126786 
1.82721e-05 
9.88612e-05 
0.000351789 
0.000282052 
0.00024822 
0.000367406 
0.000181447 
0.000333837 
0.000339515 
0.000264647 
-2.65008e-05 
5.86766e-05 
0.000124411 
9.12103e-05 
4.42821e-05 
-4.06214e-05 
-7.52992e-06 
0.000124641 
0.000345083 
0.00014087 
0.000162464 
0.000386402 
0.000382651 
0.000253679 
0.000321555 
0.000562532 
-0.00776591 
-0.0060354 
-0.00887697 
-0.00911701 
-0.00365579 
-0.00538477 
-0.00947239 
-0.00381879 
-3.73308e-06 
0.00222978 
0.00115906 
-0.000146893 
-0.00343913 
0.0047387 
0.000479526 
-0.00162013 
-0.0100274 
-0.0063701 
-0.00362897 
-0.0063021 
-0.00477201 
-0.00921828 
-0.00641082 
-0.00842359 
0.00285988 
-0.000980455 
-0.00490117 
-0.00483915 
0.00368655 
0.00402263 
-0.00116996 
-0.00635949 
-0.00389792 
0.003775 
-0.00904889 
-0.0160731 
0.000258049 
0.000328293 
0.000405206 
0.000482628 
4.28627e-05 
0.000127379 
0.000246757 
0.000193868 
-3.20599e-05 
-1.10552e-05 
1.25937e-05 
7.94407e-05 
0.00071915 
0.000583259 
0.000562464 
0.000564214 
0.000329713 
0.000584006 
0.000509066 
0.000246303 
0.000184733 
0.000220779 
0.000190294 
0.00016791 
0.000414907 
0.000120161 
0.000109496 
-0.00441441 
0.00547418 
-0.00154676 
-0.00459587 
-0.00763147 
-0.0119161 
-0.0317022 
0.00289476 
-0.0025466 
-0.0106401 
-0.00799454 
0.0023564 
0.00126298 
-0.00137085 
-0.0049729 
-0.0295403 
-0.0125537 
-0.0101748 
-0.0085741 
-0.00743952 
-0.0104267 
-0.00412333 
0.000398178 
-0.0089847 
-0.00161624 
-0.00109085 
-0.00764418 
0.000364854 
0.000328349 
0.000341004 
0.000413619 
0.000470271 
0.000379241 
0.000333828 
0.000424509 
0.000479616 
0.000538585 
0.000620631 
0.000526018 
0.000128609 
7.94882e-05 
7.13385e-05 
4.99729e-05 
0.000283538 
0.000154675 
8.14986e-05 
0.000214064 
0.000400274 
0.000292366 
0.000267427 
0.000266479 
0.000291131 
0.00029058 
0.000160258 
3.95001e-05 
-0.0202377 
-0.0106211 
-0.00200439 
0.00175115 
-0.00784364 
-0.0188201 
-0.00683741 
-0.0040209 
-0.0112884 
-0.00608101 
-0.00904822 
-0.0106996 
-0.0232605 
-0.0227099 
-0.00819615 
-0.00433409 
0.00178737 
-0.000321967 
0.000314928 
0.00470472 
-0.00483208 
-0.00130464 
9.68618e-05 
-0.0107236 
-0.00831529 
-0.00825657 
-0.00813576 
-0.0122718 
0.000296535 
-0.000165537 
-0.00312124 
-0.00434924 
0.000563167 
0.000502082 
0.000259377 
0.000218761 
0.00014052 
-3.25321e-05 
2.96086e-05 
-6.27524e-05 
-5.30372e-05 
0.000134584 
0.000135211 
2.6943e-05 
-1.39295e-05 
-3.25317e-05 
2.85102e-05 
2.30825e-05 
-2.78913e-05 
-0.000104296 
-7.78671e-05 
-2.40344e-05 
-6.92771e-05 
-0.00864703 
-0.0132689 
-0.00801958 
-0.00318637 
0.000478568 
-0.00187828 
-0.00260726 
5.75877e-05 
-0.000850581 
0.00346982 
0.0075247 
0.00230061 
0.00172244 
0.00236561 
-0.000934442 
-0.0157097 
-0.00244694 
-0.000623034 
-0.00240715 
-0.0101812 
0.00220836 
0.000311358 
-0.00160653 
-0.00164842 
ITEM: TIMESTEP
4504000
ITEM: NUMBER OF ATOMS
896
ITEM: BOX BOUNDS pp pp ff
-1.7153631884999999e+01 1.8003017117999999e+01
-1.7855467918999999e+01 1.7553981017000002e+01
-3.4618715923000003e+01 3.4618715923000003e+01
ITEM: ATOMS q 
-0.00015689 
-5.33038e-05 
0.0001317 
0.000151377 
-0.00029807 
-7.92491e-05 
0.000105135 
7.8139e-05 
-0.000253604 
-0.000279112 
-1.70441e-05 
1.04121e-05 
-0.000181789 
-5.30523e-05 
0.000138136 
0.000176451 
0.000271231 
0.000314563 
5.854e-05 
9.88561e-05 
0.000189821 
0.000209737 
3.54956e-05 
4.85804e-05 
0.000115034 
7.62052e-05 
2.76433e-05 
2.8531e-05 
-0.0116753 
-0.0099516 
-0.00966466 
-0.00410872 
-0.0153241 
-0.00772209 
-0.00388003 
-0.00110812 
-0.0160887 
-0.00545614 
-0.000444888 
-0.000733088 
-0.00225873 
-0.00159484 
-0.00333166 
-0.00772363 
-0.0201836 
0.00116603 
-0.00399677 
-0.0111573 
-0.00594158 
-0.0068885 
-0.0088595 
-0.0038886 
-0.00120081 
-6.45107e-05 
1.27926e-05 
5.36126e-05 
3.95182e-05 
4.70653e-05 
0.000129916 
-5.42854e-05 
-1.09746e-06 
0.000126932 
0.000108973 
-0.00019386 
-0.000239358 
-4.11485e-05 
-1.2605e-05 
3.76702e-05 
-2.21631e-06 
0.000124515 
4.84144e-05 
-4.11091e-06 
-1.86834e-05 
6.89278e-05 
6.19041e-05 
-4.08472e-05 
-9.80943e-05 
-6.17493e-06 
-3.92374e-05 
-0.000104259 
-0.000102462 
0.00227858 
-0.00208291 
-0.00483474 
-0.00268884 
-0.0064964 
-0.00885257 
-0.0126258 
-0.0102612 
-0.0107842 
-0.00319726 
-0.00999617 
-0.00421934 
-0.0013138 
-0.00251775 
-0.00148598 
-0.00185722 
0.00125226 
-0.0016085 
-0.00116965 
-0.000165259 
0.00123909 
0.00254669 
0.00166308 
0.00125297 
0.00040739 
0.000382896 
0.000376886 
0.000336005 
0.000249816 
0.000317839 
0.000230573 
9.31391e-05 
5.36946e-05 
0.000114206 
6.03126e-05 
8.02289e-05 
4.53204e-05 
0.000108081 
0.000295982 
0.000297534 
0.00031696 
0.0002163 
4.40976e-05 
0.000155484 
0.000117544 
-3.14319e-05 
0.000127927 
5.03214e-05 
-1.01928e-05 
3.5329e-06 
0.000144057 
0.000102923 
-0.0174196 
-0.00957742 
-0.000468987 
-0.0114817 
-0.0246263 
-0.0199234 
-0.00728222 
-0.00308997 
-0.00293338 
-0.0022035 
-0.000583373 
-0.000181954 
-0.00199947 
-0.00138898 
-0.00765344 
-0.00254411 
-0.00842898 
-0.0174795 
-0.0218231 
-0.00718383 
0.00163811 
-0.000556927 
-0.00264179 
-0.00968454 
0.00137449 
0.00345423 
-0.00971045 
0.000122244 
4.02675e-05 
0.000186653 
7.56829e-05 
0.000145413 
0.000235112 
0.000164828 
-0.000113904 
3.45557e-05 
7.44098e-05 
-8.09276e-05 
-9.83116e-05 
-0.000121842 
-0.000136668 
-0.000106984 
0.000170239 
3.37054e-05 
4.15397e-05 
7.30953e-05 
-7.96501e-06 
-1.50858e-05 
-9.53579e-05 
-6.92961e-05 
-5.43983e-05 
3.02266e-05 
-0.000142842 
-0.000171096 
-9.02434e-05 
-4.23316e-05 
-0.00125925 
-0.0038167 
0.00198993 
-0.00202717 
-0.00389865 
-0.00749391 
-0.0165811 
-0.0134804 
-0.00583653 
-0.00340843 
0.00304364 
-0.00568709 
-0.00368757 
-6.73201e-05 
7.79305e-05 
0.00314566 
0.0013034 
0.0037387 
-0.00674066 
0.00250414 
0.0022845 
0.000216571 
0.00113321 
0.00257725 
-0.00208764 
0.00548557 
0.00230936 
-0.00284944 
0.000110379 
0.000105076 
4.63974e-05 
0.000173075 
-2.76845e-06 
7.11811e-05 
0.00019476 
0.000254017 
-5.94434e-05 
-1.86208e-05 
0.000104507 
0.000198978 
2.19961e-05 
0.000158112 
0.000198162 
5.34813e-05 
-2.70502e-06 
4.07377e-05 
0.000352255 
0.000264931 
0.000163997 
0.000161203 
0.000292907 
0.000289692 
0.00022079 
0.000107246 
0.000279742 
0.00013298 
-3.51001e-05 
9.71259e-05 
2.29407e-05 
-0.0051669 
0.000556924 
0.00224589 
-0.00246943 
-0.0021948 
0.00180844 
-0.0104386 
-0.00517393 
-0.0069819 
-0.0157508 
-0.0179934 
0.0020336 
-0.000326525 
-0.00694158 
-0.00818453 
-0.00612494 
-0.0138268 
-0.00791467 
-0.000773349 
-0.000410136 
0.000114036 
-0.011982 
-0.00703939 
0.00108939 
-0.00479876 
-0.00611607 
-0.00347221 
-0.00700069 
0.000290152 
-0.00497045 
0.00270038 
2.24492e-05 
0.000289322 
0.000103899 
0.000112487 
0.000249768 
0.000342893 
0.000296953 
0.000322327 
0.000434393 
0.000483397 
0.00014371 
0.000352197 
0.000473717 
0.000364213 
0.000359733 
5.38701e-05 
0.000312285 
0.000270798 
0.000129996 
0.0001121 
0.00036958 
0.000281909 
0.000202394 
0.000212817 
0.000354295 
0.000328153 
0.00025439 
0.000179886 
-3.86095e-05 
5.18787e-05 
0.000166995 
0.000113371 
-0.000582122 
-0.0035046 
-0.0129982 
-0.0050089 
-0.00447018 
-0.0183182 
-0.00584755 
-0.00695139 
-0.012017 
-0.00568741 
-0.0262562 
-0.0127372 
-0.0101829 
-0.00900271 
-0.00870893 
-0.0157025 
-0.0110015 
-0.0102262 
-0.00466518 
-0.000775642 
-0.00437541 
-0.00284709 
-0.00256255 
-0.00240242 
-0.00692708 
-0.00684179 
-0.00508942 
-0.00674617 
-0.0056687 
-0.00680683 
-0.0110521 
-0.00489581 
-6.35838e-05 
-5.2981e-05 
7.63073e-06 
3.69437e-05 
8.44589e-05 
0.00015088 
7.58093e-05 
9.30052e-05 
1.12206e-05 
-3.81754e-05 
-5.08409e-05 
1.64852e-05 
2.3696e-05 
2.04888e-05 
-7.70909e-05 
0.000192145 
0.000116677 
7.9541e-05 
0.00010143 
1.55696e-05 
0.000130988 
0.00016546 
0.000221717 
-4.21545e-06 
9.18957e-05 
0.000978803 
0.000828513 
0.00172447 
-0.000813566 
-0.00682046 
-0.0049956 
-0.0077587 
-0.013423 
-0.0031827 
-0.00551411 
-0.00427908 
0.00150276 
-0.00232659 
0.001187 
-0.00261454 
0.000776548 
0.000261507 
-0.00134853 
-0.0108247 
-0.00617972 
0.000938486 
-0.0111861 
-0.000161782 
-0.00126975 
-0.00818779 
-0.0408714 
-0.00314437 
-0.00577598 
-8.6219e-05 
-2.48756e-05 
-5.42051e-05 
-2.77965e-05 
9.35505e-05 
3.49803e-05 
3.60044e-05 
0.000127046 
7.26065e-05 
2.54591e-06 
-5.99184e-05 
4.05021e-05 
-4.7009e-05 
-4.35471e-05 
-1.89027e-05 
2.05386e-05 
-1.8989e-05 
-3.82901e-05 
3.51816e-06 
0.000281562 
-4.44177e-05 
-3.34624e-05 
0.000138986 
0.000234959 
0.000624955 
0.00243586 
-0.000999048 
-0.00100219 
-0.00267816 
-0.00130484 
-0.00671943 
-0.00239013 
-0.00173084 
-0.00122907 
-0.00291444 
-0.00881035 
-0.00167872 
0.00218891 
-0.00358118 
-0.000597149 
0.00161136 
-0.00550756 
1.35388e-05 
0.000634695 
0.00040652 
0.00238323 
-0.00380936 
-0.0318681 
0.00395213 
0.000983855 
-0.0299913 
-0.0242099 
-0.000163944 
-0.000173098 
-3.14817e-05 
0.000197818 
-3.8688e-05 
-9.92057e-06 
0.000250511 
0.00031922 
-7.52348e-05 
5.15063e-05 
0.000169677 
5.13231e-05 
-0.000100663 
-6.34552e-06 
-1.65313e-05 
2.40151e-05 
0.000270042 
8.55521e-05 
3.53528e-05 
0.000185987 
0.000425785 
0.000421531 
0.000417645 
0.000353353 
6.80107e-05 
0.000286967 
0.000268968 
6.63967e-05 
-3.93781e-05 
-5.13568e-05 
-5.04426e-05 
-4.32122e-05 
-0.0103334 
0.00347675 
0.000978894 
-0.00960479 
-0.0169795 
-0.0100502 
-0.013306 
-0.0177302 
0.00381316 