ITEM: TIMESTEP
4500000
ITEM: NUMBER OF ATOMS
9487
ITEM: BOX BOUNDS pp pp ff
-1.7153631884999999e+01 1.8003017117999999e+01
-1.7855467918999999e+01 1.7553981017000002e+01
-3.4618715923000003e+01 3.4618715923000003e+01
ITEM: ATOMS id mol type x y z q 
7696 3001 4 -15.4256 -16.978 -34.1187 0.00019309 
7697 3001 4 -16.6536 -16.269 -34.1187 7.75504e-05 
7698 3001 4 -16.6536 -14.851 -34.1187 -2.83804e-06 
7699 3001 4 -15.4256 -14.142 -34.1187 4.1618e-05 
7700 3001 4 -12.9696 -16.978 -34.1187 -0.000128521 
7701 3001 4 -14.1976 -16.269 -34.1187 -9.26241e-05 
7702 3001 4 -14.1976 -14.851 -34.1187 -9.60299e-06 
7703 3001 4 -12.9696 -14.142 -34.1187 0.000107372 
7704 3001 4 -10.5135 -16.978 -34.1187 -0.000243298 
7705 3001 4 -11.7415 -16.269 -34.1187 -0.000223635 
7706 3001 4 -11.7415 -14.851 -34.1187 0.000138457 
7707 3001 4 -10.5135 -14.142 -34.1187 0.000197492 
7709 3001 4 -9.28549 -16.269 -34.1187 -9.18318e-05 
7710 3001 4 -9.28549 -14.851 -34.1187 9.58701e-05 
7752 3001 4 -15.4256 -12.724 -34.1187 0.000134425 
7753 3001 4 -16.6536 -12.015 -34.1187 8.44974e-05 
7754 3001 4 -16.6536 -10.597 -34.1187 0.000142308 
7755 3001 4 -15.4256 -9.88802 -34.1187 0.000232001 
7756 3001 4 -12.9696 -12.724 -34.1187 0.000136168 
7757 3001 4 -14.1976 -12.015 -34.1187 0.000171647 
7758 3001 4 -14.1976 -10.597 -34.1187 0.00025629 
7759 3001 4 -12.9696 -9.88802 -34.1187 0.000259162 
7760 3001 4 -10.5135 -12.724 -34.1187 0.000103753 
7761 3001 4 -11.7415 -12.015 -34.1187 0.000129316 
7762 3001 4 -11.7415 -10.597 -34.1187 0.000182139 
7763 3001 4 -10.5135 -9.88802 -34.1187 0.000180227 
7765 3001 4 -9.28549 -12.015 -34.1187 6.26334e-05 
7766 3001 4 -9.28549 -10.597 -34.1187 0.000116788 
8144 3001 4 -15.4256 -15.56 -30.7687 -0.00277286 
8145 3001 4 -16.6536 -14.851 -30.7687 0.00207483 
8146 3001 4 -16.6536 -13.433 -30.7687 -0.0129997 
8147 3001 4 -15.4256 -12.724 -30.7687 -0.00905386 
8148 3001 4 -12.9696 -15.56 -30.7687 -0.0138141 
8149 3001 4 -14.1976 -14.851 -30.7687 0.000937947 
8150 3001 4 -14.1976 -13.433 -30.7687 -0.00143738 
8151 3001 4 -12.9696 -12.724 -30.7687 -0.00166705 
8152 3001 4 -10.5135 -15.56 -30.7687 -0.0394575 
8153 3001 4 -11.7415 -14.851 -30.7687 -0.0141608 
8154 3001 4 -11.7415 -13.433 -30.7687 -0.000798579 
8155 3001 4 -10.5135 -12.724 -30.7687 -0.00312374 
8157 3001 4 -9.28549 -14.851 -30.7687 -0.00166064 
8158 3001 4 -9.28549 -13.433 -30.7687 -0.00185726 
8200 3001 4 -15.4256 -11.306 -30.7687 -0.00750724 
8201 3001 4 -16.6536 -10.597 -30.7687 -0.0150413 
8202 3001 4 -16.6536 -9.17902 -30.7687 -0.00463043 
8204 3001 4 -12.9696 -11.306 -30.7687 -0.00700376 
8205 3001 4 -14.1976 -10.597 -30.7687 -0.00800974 
8206 3001 4 -14.1976 -9.17902 -30.7687 -0.0101028 
8208 3001 4 -10.5135 -11.306 -30.7687 -0.00313084 
8209 3001 4 -11.7415 -10.597 -30.7687 -0.00578444 
8210 3001 4 -11.7415 -9.17902 -30.7687 -0.00673322 
8213 3001 4 -9.28549 -10.597 -30.7687 -0.00161947 
8214 3001 4 -9.28549 -9.17902 -30.7687 -0.00559399 
3686 1259 3 -11.3664 -13.2729 -26.3578 -0.8476 
3687 1259 2 -10.3812 -13.3798 -26.2234 0.4238 
3685 1259 2 -11.4321 -12.3004 -26.581 0.4238 
6165 2085 2 -15.2157 -10.8432 -26.7893 0.4238 
493 195 2 -12.4685 -15.3129 -27.7837 0.4238 
494 195 3 -13.284 -14.7377 -27.7199 -0.8476 
495 195 2 -12.7526 -13.9647 -27.3732 0.4238 
92 61 3 -11.0456 -16.1472 -28.0213 -0.8476 
5791 1961 2 -15.1679 -14.7363 -27.9761 0.4238 
5792 1961 3 -16.1256 -14.8309 -27.7043 -0.8476 
6164 2085 3 -15.2752 -11.6595 -26.2148 -0.8476 
1265 452 3 -11.7641 -10.6053 -26.6267 -0.8476 
6163 2085 2 -16.0454 -12.1491 -26.6236 0.4238 
1266 452 2 -11.9614 -9.98047 -27.382 0.4238 
5793 1961 2 -16.5779 -13.9784 -27.9662 0.4238 
4520 1537 3 -8.53335 -16.2958 -27.1877 -0.8476 
2685 925 2 -8.88743 -14.7507 -26.6397 0.4238 
2684 925 3 -8.84874 -13.8503 -26.2064 -0.8476 
1264 452 2 -10.8737 -10.4268 -26.2079 0.4238 
91 61 2 -10.0801 -16.1844 -27.7636 0.4238 
5561 1884 3 -14.8988 -9.21983 -27.5924 -0.8476 
5562 1884 2 -14.0458 -9.38119 -28.0889 0.4238 
4924 1672 2 -8.36493 -10.0852 -26.8627 0.4238 
4521 1537 2 -8.46052 -17.2891 -27.0988 0.4238 
1656 582 2 -11.9632 -17.037 -26.9617 0.4238 
1655 582 3 -12.6033 -17.6303 -26.4735 -0.8476 
93 61 2 -11.1321 -16.1996 -29.0162 0.4238 
5825 1972 3 -6.86507 -12.5912 -27.6166 -0.8476 
5824 1972 2 -6.46942 -13.5071 -27.5484 0.4238 
2047 713 2 -5.23436 -11.4944 -27.9518 0.4238 
3233 1108 3 -5.96563 -15.4234 -27.7575 -0.8476 
7708 3001 4 -8.05746 -16.978 -34.1187 -0.0002588 
7711 3001 4 -8.05746 -14.142 -34.1187 5.0191e-06 
7712 3001 4 -5.60142 -16.978 -34.1187 -0.000187882 
7713 3001 4 -6.82944 -16.269 -34.1187 -4.75715e-05 
7714 3001 4 -6.82944 -14.851 -34.1187 5.14484e-05 
7715 3001 4 -5.60142 -14.142 -34.1187 0.000127053 
7716 3001 4 -3.14537 -16.978 -34.1187 -0.000200063 
7717 3001 4 -4.37339 -16.269 -34.1187 -2.40591e-05 
7718 3001 4 -4.37339 -14.851 -34.1187 0.000169798 
7719 3001 4 -3.14537 -14.142 -34.1187 0.000106761 
7720 3001 4 -0.68932 -16.978 -34.1187 -0.000170932 
7721 3001 4 -1.91734 -16.269 -34.1187 -5.65807e-05 
7722 3001 4 -1.91734 -14.851 -34.1187 2.89438e-05 
7723 3001 4 -0.68932 -14.142 -34.1187 -1.09414e-05 
7764 3001 4 -8.05746 -12.724 -34.1187 2.75878e-05 
7767 3001 4 -8.05746 -9.88802 -34.1187 0.000171222 
7768 3001 4 -5.60142 -12.724 -34.1187 7.59462e-05 
7769 3001 4 -6.82944 -12.015 -34.1187 6.67925e-05 
7770 3001 4 -6.82944 -10.597 -34.1187 0.000148642 
7771 3001 4 -5.60142 -9.88802 -34.1187 0.000173207 
7772 3001 4 -3.14537 -12.724 -34.1187 8.6301e-05 
7773 3001 4 -4.37339 -12.015 -34.1187 9.75094e-05 
7774 3001 4 -4.37339 -10.597 -34.1187 0.0001331 
7775 3001 4 -3.14537 -9.88802 -34.1187 0.000148433 
7776 3001 4 -0.68932 -12.724 -34.1187 6.87546e-05 
7777 3001 4 -1.91734 -12.015 -34.1187 9.50423e-05 
7778 3001 4 -1.91734 -10.597 -34.1187 0.000129294 
7779 3001 4 -0.68932 -9.88802 -34.1187 0.000222761 
8156 3001 4 -8.05746 -15.56 -30.7687 -0.00172238 
8159 3001 4 -8.05746 -12.724 -30.7687 0.000449004 
8160 3001 4 -5.60142 -15.56 -30.7687 -0.0227097 
8161 3001 4 -6.82944 -14.851 -30.7687 -0.0012415 
8162 3001 4 -6.82944 -13.433 -30.7687 0.00186272 
8163 3001 4 -5.60142 -12.724 -30.7687 -0.00155525 
8164 3001 4 -3.14537 -15.56 -30.7687 -0.0071874 
8165 3001 4 -4.37339 -14.851 -30.7687 -0.013677 
8166 3001 4 -4.37339 -13.433 -30.7687 -0.00360096 
8167 3001 4 -3.14537 -12.724 -30.7687 -0.00295202 
8168 3001 4 -0.68932 -15.56 -30.7687 0.00132435 
8169 3001 4 -1.91734 -14.851 -30.7687 -0.00260136 
8170 3001 4 -1.91734 -13.433 -30.7687 -0.00456016 
8171 3001 4 -0.68932 -12.724 -30.7687 -0.0037638 
8212 3001 4 -8.05746 -11.306 -30.7687 -0.00457796 
8216 3001 4 -5.60142 -11.306 -30.7687 -0.00648354 
8217 3001 4 -6.82944 -10.597 -30.7687 -0.00671762 
8218 3001 4 -6.82944 -9.17902 -30.7687 -0.00329561 
8220 3001 4 -3.14537 -11.306 -30.7687 -0.00112427 
8221 3001 4 -4.37339 -10.597 -30.7687 -0.00372766 
8222 3001 4 -4.37339 -9.17902 -30.7687 -0.00801164 
8224 3001 4 -0.68932 -11.306 -30.7687 -0.00594403 
8225 3001 4 -1.91734 -10.597 -30.7687 -0.00399199 
8226 3001 4 -1.91734 -9.17902 -30.7687 -0.00349878 
3234 1108 2 -5.43525 -15.3864 -26.9106 0.4238 
174 88 2 -0.981133 -15.6806 -27.422 0.4238 
4925 1672 3 -7.92349 -9.89043 -27.7386 -0.8476 
2049 713 2 -3.83007 -11.9292 -27.3439 0.4238 
5947 2013 2 -2.34863 -9.63693 -26.0362 0.4238 
5826 1972 2 -7.72577 -12.7531 -27.1339 0.4238 
2048 713 3 -4.38001 -11.1288 -27.5825 -0.8476 
5949 2013 2 -2.80706 -10.5107 -27.2822 0.4238 
4926 1672 2 -7.6549 -10.7687 -28.1341 0.4238 
5948 2013 3 -1.99778 -10.1427 -26.8243 -0.8476 
173 88 3 -0.195198 -15.0681 -27.5062 -0.8476 
4519 1537 2 -7.60029 -15.9523 -27.2946 0.4238 
3232 1108 2 -5.42118 -15.583 -28.581 0.4238 
6330 2140 2 -3.49171 -16.3181 -26.8058 0.4238 
6329 2140 3 -2.67103 -16.5893 -27.3087 -0.8476 
7164 2418 2 -0.915774 -11.9507 -27.1351 0.4238 
7162 2418 2 0.0229822 -13.2301 -27.3418 0.4238 
7163 2418 3 0.0305534 -12.2675 -27.071 -0.8476 
3085 1059 2 -5.20997 -9.1707 -27.9669 0.4238 
517 203 2 -0.371038 -9.11919 -27.0013 0.4238 
5736 1942 2 -2.8449 -14.108 -27.5897 0.4238 
5735 1942 3 -3.39453 -13.4165 -27.1211 -0.8476 
5734 1942 2 -3.70131 -14.0062 -26.374 0.4238 
7673 2599 2 -3.87238 -14.7886 -26.2485 0.04 
6328 2140 2 -2.87165 -17.5486 -27.5074 0.4238 
5560 1884 2 -14.796 -8.34986 -27.1102 0.4238 
6532 2208 2 -12.0318 -7.45564 -28.342 0.4238 
6534 2208 2 -12.152 -7.79419 -26.8286 0.4238 
7808 3001 4 -15.4256 -8.47002 -34.1187 0.000164984 
7809 3001 4 -16.6536 -7.76102 -34.1187 2.33572e-05 
7810 3001 4 -16.6536 -6.34302 -34.1187 2.2623e-05 
7811 3001 4 -15.4256 -5.63402 -34.1187 8.52024e-05 
7812 3001 4 -12.9696 -8.47002 -34.1187 0.000335532 
7813 3001 4 -14.1976 -7.76102 -34.1187 0.000260332 
7814 3001 4 -14.1976 -6.34302 -34.1187 0.000195951 
7815 3001 4 -12.9696 -5.63402 -34.1187 0.000199622 
7816 3001 4 -10.5135 -8.47002 -34.1187 0.000226477 
7817 3001 4 -11.7415 -7.76102 -34.1187 0.000299552 
7818 3001 4 -11.7415 -6.34302 -34.1187 0.000257566 
7819 3001 4 -10.5135 -5.63402 -34.1187 8.57244e-05 
7821 3001 4 -9.28549 -7.76102 -34.1187 0.000189522 
7822 3001 4 -9.28549 -6.34302 -34.1187 0.000107196 
7864 3001 4 -15.4256 -4.21602 -34.1187 0.000160048 
7865 3001 4 -16.6536 -3.50702 -34.1187 0.000169832 
7866 3001 4 -16.6536 -2.08902 -34.1187 0.000313119 
7867 3001 4 -15.4256 -1.38002 -34.1187 0.00041654 
7868 3001 4 -12.9696 -4.21602 -34.1187 0.000177411 
7869 3001 4 -14.1976 -3.50702 -34.1187 0.000295058 
7870 3001 4 -14.1976 -2.08902 -34.1187 0.000474521 
7871 3001 4 -12.9696 -1.38002 -34.1187 0.000358243 
7872 3001 4 -10.5135 -4.21602 -34.1187 -2.13543e-05 
7873 3001 4 -11.7415 -3.50702 -34.1187 0.000119071 
7874 3001 4 -11.7415 -2.08902 -34.1187 0.000154563 
7875 3001 4 -10.5135 -1.38002 -34.1187 2.27244e-06 
7877 3001 4 -9.28549 -3.50702 -34.1187 -9.50143e-05 
7878 3001 4 -9.28549 -2.08902 -34.1187 -7.97718e-05 
8203 3001 4 -15.4256 -8.47002 -30.7687 -0.00258662 
8207 3001 4 -12.9696 -8.47002 -30.7687 -0.0140992 
8211 3001 4 -10.5135 -8.47002 -30.7687 -0.00778429 
8256 3001 4 -15.4256 -7.05202 -30.7687 -0.00408183 
8257 3001 4 -16.6536 -6.34302 -30.7687 -0.00495553 
8258 3001 4 -16.6536 -4.92502 -30.7687 -0.000614872 
8259 3001 4 -15.4256 -4.21602 -30.7687 -0.000697812 
8260 3001 4 -12.9696 -7.05202 -30.7687 -0.0151641 
8261 3001 4 -14.1976 -6.34302 -30.7687 -0.00394579 
8262 3001 4 -14.1976 -4.92502 -30.7687 -0.00170458 
8263 3001 4 -12.9696 -4.21602 -30.7687 -0.00387331 
8264 3001 4 -10.5135 -7.05202 -30.7687 -0.0102486 
8265 3001 4 -11.7415 -6.34302 -30.7687 -0.0121523 
8266 3001 4 -11.7415 -4.92502 -30.7687 -0.000543238 
8267 3001 4 -10.5135 -4.21602 -30.7687 0.000772554 
8269 3001 4 -9.28549 -6.34302 -30.7687 -0.00275997 
8270 3001 4 -9.28549 -4.92502 -30.7687 0.00411776 
8312 3001 4 -15.4256 -2.79802 -30.7687 -0.0134594 
8313 3001 4 -16.6536 -2.08902 -30.7687 -0.012863 
8314 3001 4 -16.6536 -0.671021 -30.7687 -0.0121682 
8316 3001 4 -12.9696 -2.79802 -30.7687 -0.00881476 
8317 3001 4 -14.1976 -2.08902 -30.7687 -0.0230738 
8318 3001 4 -14.1976 -0.671021 -30.7687 -0.0229992 
8320 3001 4 -10.5135 -2.79802 -30.7687 -0.000577098 
8321 3001 4 -11.7415 -2.08902 -30.7687 -0.006839 
8322 3001 4 -11.7415 -0.671021 -30.7687 -0.0046208 
8325 3001 4 -9.28549 -2.08902 -30.7687 -0.000828124 
8326 3001 4 -9.28549 -0.671021 -30.7687 0.00100659 
1118 403 3 -14.846 -7.14384 -26.0198 -0.8476 
6533 2208 3 -11.7897 -8.1674 -27.6827 -0.8476 
2834 975 3 -14.8026 -4.4319 -27.4621 -0.8476 
2835 975 2 -15.7879 -4.5913 -27.4004 0.4238 
2268 786 2 -14.8955 -1.49585 -28.7266 0.4238 
2267 786 3 -14.6307 -1.76355 -27.8002 -0.8476 
2266 786 2 -14.7531 -0.972488 -27.2008 0.4238 
3468 1186 2 -11.9204 -2.93906 -27.1912 0.4238 
3466 1186 2 -12.6681 -1.86962 -27.9799 0.4238 
3467 1186 3 -11.9017 -1.95077 -27.3426 -0.8476 
2833 975 2 -14.7198 -3.43538 -27.4529 0.4238 
4662 1584 2 -13.1358 -4.528 -27.8648 0.4238 
4661 1584 3 -12.1858 -4.61528 -27.5651 -0.8476 
4660 1584 2 -12.1508 -5.32471 -26.8612 0.4238 
3126 1072 2 -10.075 -7.66801 -27.4933 0.4238 
5962 2018 2 -10.8259 -0.700498 -27.5747 0.4238 
3124 1072 2 -8.7755 -7.95432 -28.392 0.4238 
3125 1072 3 -9.14741 -7.34911 -27.6881 -0.8476 
1240 444 2 -12.3066 -0.63086 -26.1101 0.4238 
6334 2142 2 -8.57938 -2.66282 -26.6965 0.4238 
7603 2565 2 -10.2311 -4.44369 -27.607 0.4238 
7605 2565 2 -9.24484 -5.70539 -27.6974 0.4238 
7604 2565 3 -9.26917 -4.70578 -27.6841 -0.8476 
5964 2018 2 -9.46371 -0.336583 -26.9731 0.4238 
5367 1819 2 -6.39974 -4.18959 -27.5459 0.4238 
5366 1819 3 -7.04042 -3.42318 -27.592 -0.8476 
3086 1059 3 -5.71393 -8.37589 -27.6289 -0.8476 
7820 3001 4 -8.05746 -8.47002 -34.1187 0.000209891 
7823 3001 4 -8.05746 -5.63402 -34.1187 7.84694e-05 
7824 3001 4 -5.60142 -8.47002 -34.1187 0.000303994 
7825 3001 4 -6.82944 -7.76102 -34.1187 0.000301307 
7826 3001 4 -6.82944 -6.34302 -34.1187 0.000269574 
7827 3001 4 -5.60142 -5.63402 -34.1187 0.000430618 
7828 3001 4 -3.14537 -8.47002 -34.1187 0.000278148 
7829 3001 4 -4.37339 -7.76102 -34.1187 0.000421672 
7830 3001 4 -4.37339 -6.34302 -34.1187 0.00062791 
7831 3001 4 -3.14537 -5.63402 -34.1187 0.000674119 
7832 3001 4 -0.68932 -8.47002 -34.1187 0.000216812 
7833 3001 4 -1.91734 -7.76102 -34.1187 0.00025929 
7834 3001 4 -1.91734 -6.34302 -34.1187 0.000439617 
7835 3001 4 -0.68932 -5.63402 -34.1187 0.000315876 
7876 3001 4 -8.05746 -4.21602 -34.1187 -4.71626e-05 
7879 3001 4 -8.05746 -1.38002 -34.1187 -9.06882e-05 
7880 3001 4 -5.60142 -4.21602 -34.1187 0.000335438 
7881 3001 4 -6.82944 -3.50702 -34.1187 4.81174e-05 
7882 3001 4 -6.82944 -2.08902 -34.1187 -3.53014e-05 
7883 3001 4 -5.60142 -1.38002 -34.1187 -1.97457e-05 
7884 3001 4 -3.14537 -4.21602 -34.1187 0.000637538 
7885 3001 4 -4.37339 -3.50702 -34.1187 0.000424392 
7886 3001 4 -4.37339 -2.08902 -34.1187 0.000131744 
7887 3001 4 -3.14537 -1.38002 -34.1187 8.41947e-05 
7888 3001 4 -0.68932 -4.21602 -34.1187 0.000376423 
7889 3001 4 -1.91734 -3.50702 -34.1187 0.000427775 
7890 3001 4 -1.91734 -2.08902 -34.1187 0.000189265 
7891 3001 4 -0.68932 -1.38002 -34.1187 4.91268e-05 
8215 3001 4 -8.05746 -8.47002 -30.7687 -0.00896354 
8219 3001 4 -5.60142 -8.47002 -30.7687 -0.00526675 
8223 3001 4 -3.14537 -8.47002 -30.7687 -0.00458671 
8227 3001 4 -0.68932 -8.47002 -30.7687 -0.00525674 
8268 3001 4 -8.05746 -7.05202 -30.7687 -0.00624769 
8271 3001 4 -8.05746 -4.21602 -30.7687 0.00542877 
8272 3001 4 -5.60142 -7.05202 -30.7687 -0.0166109 
8273 3001 4 -6.82944 -6.34302 -30.7687 -0.00827002 
8274 3001 4 -6.82944 -4.92502 -30.7687 -0.00449164 
8275 3001 4 -5.60142 -4.21602 -30.7687 -0.011657 
8276 3001 4 -3.14537 -7.05202 -30.7687 -0.00728838 
8277 3001 4 -4.37339 -6.34302 -30.7687 -0.0285603 
8278 3001 4 -4.37339 -4.92502 -30.7687 -0.0263483 
8279 3001 4 -3.14537 -4.21602 -30.7687 -0.0200371 
8280 3001 4 -0.68932 -7.05202 -30.7687 -0.00259414 
8281 3001 4 -1.91734 -6.34302 -30.7687 -0.00679032 
8282 3001 4 -1.91734 -4.92502 -30.7687 -0.0271927 
8283 3001 4 -0.68932 -4.21602 -30.7687 -0.0180203 
8324 3001 4 -8.05746 -2.79802 -30.7687 0.00217595 
8328 3001 4 -5.60142 -2.79802 -30.7687 -0.000744372 
8329 3001 4 -6.82944 -2.08902 -30.7687 0.000394223 
8330 3001 4 -6.82944 -0.671021 -30.7687 -0.000845167 
8332 3001 4 -3.14537 -2.79802 -30.7687 -0.0111876 
8333 3001 4 -4.37339 -2.08902 -30.7687 -0.00213432 
8334 3001 4 -4.37339 -0.671021 -30.7687 0.00167714 
8336 3001 4 -0.68932 -2.79802 -30.7687 -0.00968204 
8337 3001 4 -1.91734 -2.08902 -30.7687 -0.00738861 
8338 3001 4 -1.91734 -0.671021 -30.7687 0.00155449 
7111 2401 2 -5.54972 -6.62507 -27.7998 0.4238 
7112 2401 3 -5.50584 -5.63983 -27.9652 -0.8476 
6003 2031 2 -1.82023 -4.18276 -28.7388 0.4238 
5365 1819 2 -7.92711 -3.87841 -27.673 0.4238 
6002 2031 3 -1.59006 -4.2169 -27.7662 -0.8476 
5176 1756 2 -3.08304 -3.86959 -26.3035 0.4238 
6001 2031 2 -0.601404 -4.07181 -27.7274 0.4238 
7113 2401 2 -5.18811 -5.66757 -28.913 0.4238 
955 349 2 -6.65569 -1.53249 -27.7983 0.4238 
5177 1756 3 -4.02391 -3.54189 -26.3894 -0.8476 
5178 1756 2 -4.38684 -4.23553 -27.0116 0.4238 
6364 2152 2 -3.82479 -1.78607 -27.4274 0.4238 
6942 2344 2 -1.71433 -1.94202 -27.3082 0.4238 
3087 1059 2 -6.64032 -8.74587 -27.5587 0.4238 
6365 2152 3 -3.67371 -0.819705 -27.6355 -0.8476 
6366 2152 2 -4.57184 -0.380043 -27.6431 0.4238 
6940 2344 2 -0.182574 -2.2704 -26.9147 0.4238 
6941 2344 3 -0.814878 -1.53335 -27.1534 -0.8476 
956 349 3 -6.5115 -0.608602 -27.4438 -0.8476 
518 203 3 0.352802 -8.70194 -27.5508 -0.8476 
5935 2009 2 -4.67479 -7.76513 -26.4768 0.4238 
5749 1947 2 -8.15366 -6.63379 -26.1049 0.4238 
6465 2185 2 -1.56874 -5.81291 -26.5978 0.4238 
957 349 2 -6.59006 -0.666238 -26.4486 0.4238 
3360 1150 2 -12.8384 -11.2756 -25.3657 0.4238 
4959 1683 2 -15.0238 -16.9036 -18.2832 0.4238 
3358 1150 2 -14.1001 -11.8504 -24.7266 0.4238 
2683 925 2 -8.56788 -13.9476 -25.2516 0.4238 
8 8 1 -14.3569 -15.7821 -25.2885 1 
3359 1150 3 -13.1768 -11.5647 -24.4702 -0.8476 
4685 1592 3 -14.7367 -13.8346 -19.8284 -0.8476 
2850 980 2 -11.0824 -13.8833 -21.5823 0.4238 
2849 980 3 -11.454 -14.8116 -21.5685 -0.8476 
2848 980 2 -12.2522 -14.6449 -20.9897 0.4238 
3955 1349 2 -11.2796 -14.6188 -24.867 0.4238 
3957 1349 2 -11.5228 -15.2141 -23.3488 0.4238 
3956 1349 3 -11.567 -15.4108 -24.3283 -0.8476 
896 329 3 -14.8655 -11.7334 -17.9418 -0.8476 
897 329 2 -14.7802 -12.4356 -18.6487 0.4238 
4629 1573 2 -10.6779 -11.6055 -20.4574 0.4238 
4628 1573 3 -10.4812 -12.485 -20.8906 -0.8476 
4627 1573 2 -9.90028 -12.963 -20.2318 0.4238 
4684 1592 2 -14.5616 -14.5433 -19.1449 0.4238 
5483 1858 3 -10.9255 -10.0088 -19.8433 -0.8476 
895 329 2 -15.8493 -11.7394 -17.7628 0.4238 
1308 466 2 -11.9358 -9.95638 -18.6273 0.4238 
4686 1592 2 -15.1663 -14.2045 -20.6521 0.4238 
974 355 3 -8.8583 -13.6904 -18.995 -0.8476 
1306 466 2 -13.4343 -10.3827 -18.1335 0.4238 
973 355 2 -8.39647 -12.8209 -18.8202 0.4238 
1307 466 3 -12.6515 -9.78818 -17.9495 -0.8476 
3639 1243 2 -12.0576 -10.64 -23.7443 0.4238 
3637 1243 2 -10.9416 -10.5132 -22.6147 0.4238 
3638 1243 3 -11.5122 -9.97458 -23.2347 -0.8476 
2789 960 3 -14.3862 -17.3128 -22.9302 -0.8476 
3494 1195 3 -9.32057 -10.0292 -25.335 -0.8476 
4524 1538 2 -17.0706 -11.2269 -23.649 0.4238 
1309 467 2 -16.3628 -14.2026 -23.3938 0.4238 
1310 467 3 -15.375 -14.0475 -23.3767 -0.8476 
1752 614 2 -14.3569 -11.3239 -22.0069 0.4238 
5484 1858 2 -11.1912 -9.08205 -20.1088 0.4238 
3493 1195 2 -8.4421 -9.81875 -24.9061 0.4238 
1750 614 2 -15.4631 -10.3251 -21.5183 0.4238 
4635 1575 2 -9.89966 -15.7369 -21.4422 0.4238 
1881 657 2 -8.5606 -14.7728 -22.7638 0.4238 
4634 1575 3 -8.91355 -15.9028 -21.4339 -0.8476 
4633 1575 2 -8.77791 -15.8834 -20.4433 0.4238 
5456 1849 3 -15.6415 -9.10672 -20.0105 -0.8476 
1751 614 3 -15.3092 -11.0667 -22.1712 -0.8476 
3495 1195 2 -9.85511 -10.0379 -24.4899 0.4238 
1311 467 2 -15.2491 -13.2581 -22.7759 0.4238 
2790 960 2 -15.0182 -17.3356 -22.1556 0.4238 
7513 2535 2 -10.9764 -17.1243 -24.1266 0.4238 
876 322 2 -12.5402 -16.6849 -19.0621 0.4238 
874 322 2 -11.1586 -17.0275 -19.5751 0.4238 
875 322 3 -11.5832 -16.5554 -18.8025 -0.8476 
3037 1043 2 -13.0487 -17.8208 -21.7147 0.4238 
5457 1849 2 -16.3168 -9.82061 -19.8251 0.4238 
5482 1858 2 -9.93075 -9.91723 -19.7986 0.4238 
7646 2586 3 -15.9726 -17.4831 -20.9787 -1.04 
6846 2312 2 -17.119 -13.8719 -25.5685 0.4238 
4957 1683 2 -14.8368 -17.0579 -19.7465 0.4238 
7647 2586 2 -15.8683 -16.5225 -20.7211 0.04 
2014 702 2 -16.9598 -16.0385 -21.5796 0.4238 
4958 1683 3 -14.3321 -16.6806 -18.97 -0.8476 
653 248 3 -16.1553 -17.7767 -25.2513 -0.8476 
654 248 2 -17.1434 -17.7863 -25.4053 0.4238 
5296 1796 2 -0.030469 -11.8089 -17.6209 0.4238 
6027 2039 2 -1.99123 -17.8522 -24.5155 0.4238 
6299 2130 3 -3.26388 -9.51664 -24.0112 -0.8476 
4290 1460 2 -0.501374 -15.3418 -25.7601 0.4238 
4502 1531 3 -7.90613 -17.1544 -18.7807 -0.8476 
1879 657 2 -8.06671 -13.3079 -22.5797 0.4238 
1880 657 3 -8.24411 -13.9857 -23.2932 -0.8476 
4735 1609 2 -7.83227 -10.7965 -17.818 0.4238 
6300 2130 2 -3.52178 -10.4144 -23.654 0.4238 
2050 714 2 -5.4273 -10.7776 -25.856 0.4238 
975 355 2 -8.1954 -14.2024 -18.4487 0.4238 
7672 2599 3 -4.45651 -15.2906 -25.6108 -1.04 
5430 1840 2 -6.43395 -13.7175 -23.9561 0.4238 
3836 1309 3 -0.0371426 -10.1988 -23.1124 -0.8476 
444 178 2 -3.45809 -16.9861 -22.4994 0.4238 
2820 970 2 -6.24031 -17.6397 -25.225 0.4238 
2806 966 2 -2.00655 -15.7742 -24.2451 0.4238 
311 134 3 -8.17199 -9.6483 -20.3303 -0.8476 
2808 966 2 -3.43354 -16.1172 -24.7048 0.4238 
1888 660 2 -0.863617 -13.7356 -24.1103 0.4238 
7539 2543 2 -6.91557 -15.4161 -21.8199 0.4238 
2051 714 3 -5.81718 -10.7363 -24.936 -0.8476 
7537 2543 2 -5.7713 -14.5559 -22.5278 0.4238 
7538 2543 3 -5.95699 -15.1428 -21.7397 -0.8476 
5319 1803 2 -6.4339 -10.9113 -22.6209 0.4238 
5318 1803 3 -7.09103 -11.4852 -22.1322 -0.8476 
5317 1803 2 -7.46006 -10.8601 -21.4445 0.4238 
2052 714 2 -5.50503 -11.5575 -24.4582 0.4238 
2882 991 3 -4.85621 -11.4402 -18.5802 -0.8476 
2883 991 2 -4.31169 -11.4194 -17.7417 0.4238 
2881 991 2 -4.77022 -12.3823 -18.9044 0.4238 
5429 1840 3 -5.45201 -13.5455 -23.8773 -0.8476 
94 62 2 -5.08221 -14.4252 -20.4688 0.4238 
3203 1098 3 -0.970085 -16.1132 -18.094 -0.8476 
3204 1098 2 -0.418611 -16.6435 -18.7379 0.4238 
95 62 3 -4.76143 -14.0384 -19.6042 -0.8476 
5428 1840 2 -5.19862 -14.2542 -24.5357 0.4238 
2807 966 3 -2.80932 -16.288 -23.9424 -0.8476 
5352 1814 2 -3.92474 -12.7572 -22.9892 0.4238 
5351 1814 3 -3.3219 -12.0068 -22.7179 -0.8476 
5350 1814 2 -2.42681 -12.2368 -23.0999 0.4238 
2526 872 2 -0.772694 -13.2614 -19.6787 0.4238 
96 62 2 -4.28147 -14.783 -19.1403 0.4238 
4161 1417 2 -4.35498 -10.6427 -20.0849 0.4238 
1889 660 3 -0.925808 -12.8511 -23.6479 -0.8476 
1890 660 2 -0.500681 -13.0221 -22.759 0.4238 
4160 1417 3 -3.94313 -10.1081 -20.8229 -0.8476 
4159 1417 2 -3.39364 -10.7877 -21.3089 0.4238 
1171 421 2 -5.47689 -9.92001 -18.7988 0.4238 
442 178 2 -4.82378 -17.0735 -21.8104 0.4238 
3202 1098 2 -1.92522 -16.2286 -18.3667 0.4238 
443 178 3 -3.97524 -17.5953 -21.8982 -0.8476 
2741 944 3 -3.74887 -16.0447 -18.4448 -0.8476 
6169 2087 2 -6.65305 -9.44799 -24.5946 0.4238 
4289 1460 3 -0.515776 -15.4604 -24.7673 -0.8476 
2525 872 3 -0.991235 -12.6541 -18.9149 -0.8476 
4503 1531 2 -7.45611 -17.4751 -17.9472 0.4238 
2742 944 2 -4.43922 -16.7326 -18.6688 0.4238 
2818 970 2 -5.39841 -16.36 -25.052 0.4238 
2524 872 2 -1.58 -13.203 -18.3216 0.4238 
2029 707 2 -8.34756 -17.5075 -22.345 0.4238 
2819 970 3 -6.08195 -16.9045 -24.5659 -0.8476 
4501 1531 2 -7.27602 -17.5354 -19.4573 0.4238 
1172 421 3 -5.92068 -9.02649 -18.7305 -0.8476 
312 134 2 -7.4182 -9.44121 -19.7067 0.4238 
3837 1309 2 0.122132 -10.3888 -22.1436 0.4238 
2031 707 2 -7.39147 -17.6294 -23.5659 0.4238 
4736 1609 3 -7.43898 -11.7012 -17.654 -0.8476 
4737 1609 2 -6.6747 -11.7129 -18.2988 0.4238 
2740 944 2 -4.0366 -15.9287 -17.4942 0.4238 
3674 1255 3 0.339554 -13.7417 -21.3894 -0.8476 
3835 1309 2 -0.262898 -11.0738 -23.5407 0.4238 
3673 1255 2 0.356958 -14.6834 -21.7253 0.4238 
6322 2138 2 -0.306377 -17.3046 -20.6181 0.4238 
3261 1117 2 0.405641 -11.214 -19.8297 0.4238 
1117 403 2 -15.6827 -6.60633 -25.9147 0.4238 
6336 2142 2 -9.66269 -3.14471 -25.7225 0.4238 
5455 1849 2 -15.2818 -8.80094 -19.129 0.4238 
958 350 2 -14.5434 -8.52893 -17.3325 0.4238 
781 291 2 -16.9331 -8.13672 -23.9265 0.4238 
2440 844 2 -9.11258 -8.32619 -17.321 0.4238 
2154 748 2 -12.3663 -7.07633 -22.8439 0.4238 
2887 993 2 -11.3342 -0.91899 -21.2668 0.4238 
6805 2299 2 -16.7082 -1.12204 -18.6993 0.4238 
2889 993 2 -12.224 -1.31133 -19.9742 0.4238 
2652 914 2 -14.8938 -9.00196 -22.7305 0.4238 
1090 394 2 -13.0537 -6.78425 -19.4148 0.4238 
2650 914 2 -14.8212 -7.4238 -22.7726 0.4238 
2651 914 3 -15.2655 -8.20631 -23.2088 -0.8476 
1119 403 2 -14.5894 -7.48952 -25.1172 0.4238 
1091 394 3 -12.2603 -7.35347 -19.6303 -0.8476 
5643 1911 2 -15.4962 -2.57492 -22.8302 0.4238 
5135 1742 3 -17.0251 -0.435729 -24.9049 -0.8476 
5407 1833 2 -14.4119 -4.91947 -25.5248 0.4238 
5408 1833 3 -13.9375 -4.52121 -24.7397 -0.8476 
5409 1833 2 -14.4514 -3.72377 -24.4235 0.4238 
6861 2317 2 -9.97566 -7.09325 -21.3859 0.4238 
7008 2366 2 -13.6912 -3.27708 -21.1696 0.4238 
7007 2366 3 -12.9454 -3.91104 -21.3742 -0.8476 
7006 2366 2 -12.2661 -3.46577 -21.9576 0.4238 
6859 2317 2 -8.66777 -6.18247 -21.4879 0.4238 
6860 2317 3 -8.99016 -7.08926 -21.2163 -0.8476 
1793 628 3 -14.0361 -5.97513 -22.4976 -0.8476 
1794 628 2 -14.4723 -5.52787 -23.2784 0.4238 
1792 628 2 -13.5775 -5.26629 -21.9616 0.4238 
7690 2608 3 -14.883 -1.67982 -21.3528 -1.04 
1092 394 2 -12.1279 -6.99823 -20.5557 0.4238 
2153 748 3 -11.6839 -7.57551 -22.3099 -0.8476 
7303 2465 2 -10.3102 -2.85967 -23.5728 0.4238 
2152 748 2 -11.5391 -8.46653 -22.7402 0.4238 
7305 2465 2 -11.8765 -3.03354 -23.7465 0.4238 
6557 2216 3 -11.9144 -6.37568 -25.5957 -0.8476 
6558 2216 2 -11.0917 -6.33329 -25.0287 0.4238 
6556 2216 2 -12.5099 -5.78317 -25.0532 0.4238 
4061 1384 3 -9.79503 -3.84286 -19.9646 -0.8476 
4060 1384 2 -9.4471 -4.12046 -20.86 0.4238 
3180 1090 2 -14.3057 -1.10864 -19.876 0.4238 
120 70 2 -12.3468 -4.34178 -19.4367 0.4238 
119 70 3 -12.565 -4.63177 -18.5049 -0.8476 
7304 2465 3 -11.0209 -3.5498 -23.7091 -0.8476 
4024 1372 2 -15.3858 -3.18145 -20.4372 0.4238 
7691 2608 2 -15.7431 -2.18923 -21.3272 0.04 
5642 1911 3 -15.9305 -2.77462 -23.7085 -0.8476 
4025 1372 3 -15.7446 -3.97058 -19.9387 -0.8476 
4062 1384 2 -10.3859 -3.0584 -20.1529 0.4238 
3179 1090 3 -13.7931 -0.821978 -19.0666 -0.8476 
118 70 2 -13.3569 -5.24242 -18.4968 0.4238 
5723 1938 3 -14.6395 -6.25723 -18.8294 -0.8476 
5722 1938 2 -15.2535 -5.58632 -19.2452 0.4238 
3831 1307 2 -11.4435 -7.0735 -18.3109 0.4238 
3830 1307 3 -10.9816 -6.8831 -17.4446 -0.8476 
6 6 1 -9.76092 -4.58511 -17.502 1 
4224 1438 2 -9.56957 -4.17905 -23.0904 0.4238 
5641 1911 2 -16.5961 -3.4984 -23.5266 0.4238 
5509 1867 2 -13.5992 -1.37293 -22.3564 0.4238 
4223 1438 3 -8.77487 -4.36468 -22.5125 -0.8476 
6209 2100 3 -9.29309 -1.06523 -23.5152 -0.8476 
2888 993 3 -11.3461 -1.46365 -20.4282 -0.8476 
5393 1828 3 -9.22567 -0.417629 -18.3762 -0.8476 
4026 1372 2 -16.7191 -3.75811 -19.867 0.4238 
6806 2299 3 -16.3286 -0.800118 -17.832 -0.8476 
5394 1828 2 -9.67519 -0.429079 -19.2694 0.4238 
6335 2142 3 -9.10115 -2.33823 -25.9076 -0.8476 
4338 1476 2 -16.267 -1.3883 -20.7218 0.4238 
6208 2100 2 -8.48126 -1.39727 -23.0349 0.4238 
5511 1867 2 -12.8279 -0.917458 -23.7499 0.4238 
3445 1179 2 -16.9097 -7.63234 -20.9864 0.4238 
2960 1017 3 -16.983 -5.52259 -25.4317 -0.8476 
5724 1938 2 -15.2002 -6.45464 -18.0252 0.4238 
3984 1358 2 -13.1948 -3.46288 -17.45 0.4238 
3982 1358 2 -13.6898 -2.00014 -17.8284 0.4238 
4248 1446 2 -9.77435 -1.38999 -17.3703 0.4238 
5510 1867 3 -12.7715 -1.45849 -22.9108 -0.8476 
6807 2299 2 -15.3399 -0.735645 -17.9679 0.4238 
5134 1742 2 -16.6245 -1.27093 -24.5281 0.4238 
6210 2100 2 -9.11994 -1.49153 -24.403 0.4238 
6298 2130 2 -3.50038 -8.97153 -23.2069 0.4238 
310 134 2 -8.24705 -8.70562 -20.6555 0.4238 
5937 2009 2 -4.04676 -8.37261 -25.0969 0.4238 
6170 2087 3 -7.21723 -8.78211 -24.1065 -0.8476 
6171 2087 2 -6.53777 -8.6102 -23.3932 0.4238 
503 198 3 -5.36046 -8.27437 -22.2559 -0.8476 
504 198 2 -4.88055 -8.64147 -21.4591 0.4238 
4726 1606 2 -0.800295 -6.01228 -17.3551 0.4238 
4222 1438 2 -8.09565 -4.70447 -23.1631 0.4238 
1374 488 2 -2.85093 -0.29783 -23.8929 0.4238 
6414 2168 2 -4.53652 -2.95729 -24.7313 0.4238 
5751 1947 2 -8.18503 -6.98974 -24.5572 0.4238 
5750 1947 3 -7.85358 -6.30728 -25.2086 -0.8476 
3060 1050 2 -5.78719 -0.709166 -19.8736 0.4238 
1571 554 3 -3.99288 -6.88002 -19.8972 -0.8476 
1570 554 2 -3.79545 -6.48919 -20.7962 0.4238 
3810 1300 2 -8.2171 -2.84869 -19.737 0.4238 
6978 2356 2 -6.06595 -2.21892 -23.0981 0.4238 
5936 2009 3 -4.16584 -7.54453 -25.6447 -0.8476 
1173 421 2 -5.24242 -8.29741 -18.8221 0.4238 
1572 554 2 -4.15606 -6.08872 -19.3079 0.4238 
3525 1205 2 -2.82114 -7.71876 -20.7215 0.4238 
3109 1067 2 -6.305 -5.68899 -24.6145 0.4238 
3111 1067 2 -4.96599 -6.40852 -24.6876 0.4238 
3110 1067 3 -5.43373 -5.7267 -24.1252 -0.8476 
3524 1205 3 -2.01276 -7.91939 -21.2749 -0.8476 
6463 2185 2 -2.6189 -6.71527 -25.7063 0.4238 
6464 2185 3 -1.70681 -6.3066 -25.7391 -0.8476 
6412 2168 2 -5.11031 -4.15342 -23.875 0.4238 
6413 2168 3 -4.87078 -3.18429 -23.8166 -0.8476 
502 198 2 -5.03595 -7.32871 -22.2764 0.4238 
7372 2488 2 -0.680346 -4.41647 -23.5391 0.4238 
7374 2488 2 -2.07892 -3.79651 -23.9921 0.4238 
2800 964 2 -0.792395 -1.19886 -24.1851 0.4238 
2899 997 2 -4.18111 -5.61519 -22.9426 0.4238 
2900 997 3 -3.51929 -5.88199 -22.242 -0.8476 
2901 997 2 -2.68456 -5.44359 -22.5752 0.4238 
7373 2488 3 -1.59416 -4.18244 -23.2072 -0.8476 
2802 964 2 -1.31352 -1.3293 -25.618 0.4238 
2801 964 3 -1.65135 -1.3414 -24.6769 -0.8476 
3805 1299 2 -1.80621 -4.20886 -18.4667 0.4238 
6977 2356 3 -6.84426 -1.79597 -22.6341 -0.8476 
3806 1299 3 -2.07371 -3.7317 -17.6296 -0.8476 
6517 2203 2 -3.49502 -2.54609 -22.3673 0.4238 
6518 2203 3 -3.29664 -1.94425 -21.5937 -0.8476 
6976 2356 2 -7.07337 -2.30388 -21.8037 0.4238 
3523 1205 2 -1.87403 -8.90438 -21.1723 0.4238 
3807 1299 2 -3.03602 -3.99987 -17.5844 0.4238 
1728 606 2 -4.67351 -3.52609 -19.1519 0.4238 
1727 606 3 -5.13012 -2.91536 -19.7988 -0.8476 
1726 606 2 -6.0579 -2.83253 -19.435 0.4238 
3809 1300 3 -7.6098 -2.05736 -19.6664 -0.8476 
6519 2203 2 -3.90599 -2.24756 -20.8611 0.4238 
7678 2602 3 -4.54003 -4.82827 -18.0256 -1.04 
3808 1300 2 -8.13212 -1.31705 -19.2431 0.4238 
382 158 2 -1.46839 -4.31091 -21.0898 0.4238 
7679 2602 2 -4.31337 -5.77631 -17.8023 0.04 
3047 1046 3 -7.2589 -4.82388 -17.7653 -0.8476 
3048 1046 2 -6.31731 -4.74198 -18.092 0.4238 
383 158 3 -1.08158 -4.64047 -20.2286 -0.8476 
154 82 2 -1.48304 -1.57139 -20.6663 0.4238 
31 31 1 -0.405883 -7.56456 -23.4557 1 
1372 488 2 -3.5488 -0.509162 -22.6445 0.4238 
4705 1599 2 -6.06659 -7.67957 -17.3476 0.4238 
1035 375 2 -6.32978 -0.740592 -17.6403 0.4238 
155 82 3 -0.571179 -1.17479 -20.5603 -0.8476 
4727 1606 3 -0.176676 -5.94688 -18.1341 -0.8476 
384 158 2 -0.1249 -4.59444 -20.5161 0.4238 
3654 1248 2 -6.47738 -0.785069 -23.8518 0.4238 
156 82 2 -0.229703 -1.0452 -21.4912 0.4238 